<?xml version="1.0"?>
<VTKFile type="UnstructuredGrid" version="0.1" byte_order="LittleEndian">
  <UnstructuredGrid>
    <Piece NumberOfCells="384" NumberOfPoints="425">
      <PointData Scalars="pressure_l">
        <DataArray type="Float32" Name="pressure_l" NumberOfComponents="1" format="ascii">
          2.6318e+07 2.63221e+07 2.62953e+07 2.6296e+07 2.63237e+07 2.62973e+07 2.63248e+07 2.62984e+07 2.63258e+07 2.62994e+07 2.63267e+07 2.63002e+07
          2.63274e+07 2.63009e+07 2.6328e+07 2.63015e+07 2.63285e+07 2.6302e+07 2.6329e+07 2.63024e+07 2.63297e+07 2.6303e+07 2.63306e+07 2.6304e+07
          2.63317e+07 2.63051e+07 2.6333e+07 2.63064e+07 2.63342e+07 2.63077e+07 2.63354e+07 2.63089e+07 2.63366e+07 2.63101e+07 2.63378e+07 2.63113e+07
          2.63389e+07 2.63124e+07 2.634e+07 2.63135e+07 2.63411e+07 2.63146e+07 2.63422e+07 2.63157e+07 2.63431e+07 2.63167e+07 2.63438e+07 2.63175e+07
          2.63441e+07 2.63178e+07 2.62694e+07 2.62702e+07 2.62711e+07 2.62721e+07 2.6273e+07 2.62738e+07 2.62745e+07 2.62751e+07 2.62755e+07 2.62756e+07
          2.6276e+07 2.62769e+07 2.62785e+07 2.62799e+07 2.62812e+07 2.62824e+07 2.62836e+07 2.62848e+07 2.62859e+07 2.6287e+07 2.62881e+07 2.62892e+07
          2.62904e+07 2.62915e+07 2.62926e+07 2.62432e+07 2.62441e+07 2.62449e+07 2.62458e+07 2.62467e+07 2.62476e+07 2.62483e+07 2.62489e+07 2.62493e+07
          2.62492e+07 2.62495e+07 2.62499e+07 2.6252e+07 2.62535e+07 2.62548e+07 2.6256e+07 2.62572e+07 2.62583e+07 2.62594e+07 2.62605e+07 2.62616e+07
          2.62628e+07 2.6264e+07 2.62655e+07 2.62674e+07 2.6217e+07 2.62179e+07 2.62187e+07 2.62196e+07 2.62205e+07 2.62214e+07 2.62222e+07 2.6223e+07
          2.62236e+07 2.62238e+07 2.62241e+07 2.62245e+07 2.62259e+07 2.62273e+07 2.62285e+07 2.62296e+07 2.62307e+07 2.62318e+07 2.62329e+07 2.6234e+07
          2.62351e+07 2.62362e+07 2.62375e+07 2.62391e+07 2.62411e+07 2.61908e+07 2.61916e+07 2.61925e+07 2.61934e+07 2.61943e+07 2.61952e+07 2.61961e+07
          2.61971e+07 2.6198e+07 2.61983e+07 2.61986e+07 2.61989e+07 2.62e+07 2.62012e+07 2.62022e+07 2.62033e+07 2.62043e+07 2.62053e+07 2.62064e+07
          2.62074e+07 2.62085e+07 2.62096e+07 2.62108e+07 2.62122e+07 2.62141e+07 2.61646e+07 2.61654e+07 2.61662e+07 2.61671e+07 2.61681e+07 2.6169e+07
          2.61701e+07 2.61712e+07 2.61724e+07 2.61727e+07 2.61731e+07 2.61733e+07 2.61742e+07 2.61751e+07 2.6176e+07 2.61769e+07 2.61779e+07 2.61789e+07
          2.61798e+07 2.61808e+07 2.61819e+07 2.61829e+07 2.61839e+07 2.6185e+07 2.61861e+07 2.61383e+07 2.61391e+07 2.61399e+07 2.61408e+07 2.61418e+07
          2.61428e+07 2.6144e+07 2.61453e+07 2.61467e+07 2.61472e+07 2.61476e+07 2.61478e+07 2.61484e+07 2.6149e+07 2.61497e+07 2.61506e+07 2.61515e+07
          2.61524e+07 2.61533e+07 2.61543e+07 2.61552e+07 2.61561e+07 2.6157e+07 2.61577e+07 2.6158e+07 2.61121e+07 2.61127e+07 2.61135e+07 2.61144e+07
          2.61154e+07 2.61165e+07 2.61177e+07 2.61192e+07 2.6121e+07 2.61218e+07 2.61222e+07 2.61225e+07 2.61224e+07 2.61228e+07 2.61234e+07 2.61242e+07
          2.6125e+07 2.61259e+07 2.61268e+07 2.61277e+07 2.61286e+07 2.61294e+07 2.61302e+07 2.61307e+07 2.61309e+07 2.60858e+07 2.60866e+07 2.60874e+07
          2.60883e+07 2.60893e+07 2.60905e+07 2.60918e+07 2.60933e+07 2.60951e+07 2.60959e+07 2.60964e+07 2.60966e+07 2.60965e+07 2.60967e+07 2.60972e+07
          2.60979e+07 2.60986e+07 2.60994e+07 2.61002e+07 2.6101e+07 2.61018e+07 2.61026e+07 2.61032e+07 2.61036e+07 2.61038e+07 2.60597e+07 2.60606e+07
          2.60615e+07 2.60624e+07 2.60635e+07 2.60647e+07 2.60661e+07 2.60676e+07 2.60692e+07 2.60697e+07 2.60701e+07 2.60703e+07 2.60706e+07 2.60709e+07
          2.60713e+07 2.60718e+07 2.60724e+07 2.6073e+07 2.60737e+07 2.60743e+07 2.6075e+07 2.60755e+07 2.6076e+07 2.60763e+07 2.60764e+07 2.60336e+07
          2.60345e+07 2.60355e+07 2.60365e+07 2.60376e+07 2.60388e+07 2.60402e+07 2.60417e+07 2.60432e+07 2.60437e+07 2.60441e+07 2.60443e+07 2.60446e+07
          2.60449e+07 2.60452e+07 2.60456e+07 2.60461e+07 2.60466e+07 2.60471e+07 2.60477e+07 2.60482e+07 2.60486e+07 2.6049e+07 2.60492e+07 2.60493e+07
          2.60074e+07 2.60084e+07 2.60094e+07 2.60104e+07 2.60116e+07 2.60128e+07 2.60141e+07 2.60157e+07 2.60173e+07 2.60178e+07 2.60182e+07 2.60184e+07
          2.60187e+07 2.60188e+07 2.6019e+07 2.60194e+07 2.60197e+07 2.60201e+07 2.60206e+07 2.6021e+07 2.60214e+07 2.60218e+07 2.60221e+07 2.60222e+07
          2.60223e+07 2.59812e+07 2.59823e+07 2.59833e+07 2.59843e+07 2.59854e+07 2.59866e+07 2.5988e+07 2.59894e+07 2.59913e+07 2.59921e+07 2.59926e+07
          2.59928e+07 2.59927e+07 2.59927e+07 2.59928e+07 2.5993e+07 2.59933e+07 2.59937e+07 2.5994e+07 2.59944e+07 2.59948e+07 2.5995e+07 2.59953e+07
          2.59954e+07 2.59955e+07 2.59551e+07 2.59562e+07 2.59572e+07 2.59581e+07 2.59592e+07 2.59603e+07 2.59616e+07 2.5963e+07 2.59644e+07 2.5966e+07
          2.59666e+07 2.59668e+07 2.59664e+07 2.59664e+07 2.59664e+07 2.59666e+07 2.59669e+07 2.59672e+07 2.59675e+07 2.59678e+07 2.59681e+07 2.59684e+07
          2.59686e+07 2.59687e+07 2.59687e+07 2.59292e+07 2.59304e+07 2.5931e+07 2.59318e+07 2.59328e+07 2.59339e+07 2.59352e+07 2.59364e+07 2.59377e+07
          2.59388e+07 2.59395e+07 2.59398e+07 2.59399e+07 2.59399e+07 2.594e+07 2.59402e+07 2.59404e+07 2.59407e+07 2.5941e+07 2.59412e+07 2.59415e+07
          2.59417e+07 2.59419e+07 2.5942e+07 2.59421e+07 2.59064e+07 2.59043e+07 2.59046e+07 2.59054e+07 2.59064e+07 2.59074e+07 2.59086e+07 2.59099e+07
          2.5911e+07 2.59121e+07 2.59128e+07 2.59131e+07 2.59133e+07 2.59134e+07 2.59135e+07 2.59137e+07 2.59139e+07 2.59141e+07 2.59144e+07 2.59147e+07
          2.5915e+07 2.59152e+07 2.59154e+07 2.59155e+07 2.59155e+07
        </DataArray>
        <DataArray type="Float32" Name="pressure_g" NumberOfComponents="1" format="ascii">
          2.6323e+07 2.63271e+07 2.63003e+07 2.6301e+07 2.63287e+07 2.63023e+07 2.63298e+07 2.63034e+07 2.63308e+07 2.63044e+07 2.63317e+07 2.63052e+07
          2.63324e+07 2.63059e+07 2.6333e+07 2.63065e+07 2.63335e+07 2.6307e+07 2.6334e+07 2.63074e+07 2.63347e+07 2.6308e+07 2.63356e+07 2.6309e+07
          2.63367e+07 2.63101e+07 2.6338e+07 2.63114e+07 2.63392e+07 2.63127e+07 2.63404e+07 2.63139e+07 2.63416e+07 2.63151e+07 2.63428e+07 2.63163e+07
          2.63439e+07 2.63174e+07 2.6345e+07 2.63185e+07 2.63461e+07 2.63196e+07 2.63472e+07 2.63207e+07 2.63481e+07 2.63217e+07 2.63488e+07 2.63225e+07
          2.63491e+07 2.63228e+07 2.62744e+07 2.62752e+07 2.62761e+07 2.62771e+07 2.6278e+07 2.62788e+07 2.62795e+07 2.62801e+07 2.62805e+07 2.62806e+07
          2.6281e+07 2.62819e+07 2.62835e+07 2.62849e+07 2.62862e+07 2.62874e+07 2.62886e+07 2.62898e+07 2.62909e+07 2.6292e+07 2.62931e+07 2.62942e+07
          2.62954e+07 2.62965e+07 2.62976e+07 2.62482e+07 2.62491e+07 2.62499e+07 2.62508e+07 2.62517e+07 2.62526e+07 2.62533e+07 2.62539e+07 2.62543e+07
          2.62542e+07 2.62545e+07 2.62549e+07 2.6257e+07 2.62585e+07 2.62598e+07 2.6261e+07 2.62622e+07 2.62633e+07 2.62644e+07 2.62655e+07 2.62666e+07
          2.62678e+07 2.6269e+07 2.62705e+07 2.62724e+07 2.6222e+07 2.62229e+07 2.62237e+07 2.62246e+07 2.62255e+07 2.62264e+07 2.62272e+07 2.6228e+07
          2.62286e+07 2.62288e+07 2.62291e+07 2.62295e+07 2.62309e+07 2.62323e+07 2.62335e+07 2.62346e+07 2.62357e+07 2.62368e+07 2.62379e+07 2.6239e+07
          2.62401e+07 2.62412e+07 2.62425e+07 2.62441e+07 2.62461e+07 2.61958e+07 2.61966e+07 2.61975e+07 2.61984e+07 2.61993e+07 2.62002e+07 2.62011e+07
          2.62021e+07 2.6203e+07 2.62033e+07 2.62036e+07 2.62039e+07 2.6205e+07 2.62062e+07 2.62072e+07 2.62083e+07 2.62093e+07 2.62103e+07 2.62114e+07
          2.62124e+07 2.62135e+07 2.62146e+07 2.62158e+07 2.62172e+07 2.62191e+07 2.61696e+07 2.61704e+07 2.61712e+07 2.61721e+07 2.61731e+07 2.6174e+07
          2.61751e+07 2.61762e+07 2.61774e+07 2.61777e+07 2.61781e+07 2.61783e+07 2.61792e+07 2.61801e+07 2.6181e+07 2.61819e+07 2.61829e+07 2.61839e+07
          2.61848e+07 2.61858e+07 2.61869e+07 2.61879e+07 2.61889e+07 2.619e+07 2.61911e+07 2.61433e+07 2.61441e+07 2.61449e+07 2.61458e+07 2.61468e+07
          2.61478e+07 2.6149e+07 2.61503e+07 2.61517e+07 2.61522e+07 2.61526e+07 2.61528e+07 2.61534e+07 2.6154e+07 2.61547e+07 2.61556e+07 2.61565e+07
          2.61574e+07 2.61583e+07 2.61593e+07 2.61602e+07 2.61611e+07 2.6162e+07 2.61627e+07 2.6163e+07 2.61171e+07 2.61177e+07 2.61185e+07 2.61194e+07
          2.61204e+07 2.61215e+07 2.61227e+07 2.61242e+07 2.6126e+07 2.61268e+07 2.61272e+07 2.61275e+07 2.61274e+07 2.61278e+07 2.61284e+07 2.61292e+07
          2.613e+07 2.61309e+07 2.61318e+07 2.61327e+07 2.61336e+07 2.61344e+07 2.61352e+07 2.61357e+07 2.61359e+07 2.60958e+07 2.60966e+07 2.60974e+07
          2.60983e+07 2.60993e+07 2.61005e+07 2.61018e+07 2.61033e+07 2.61051e+07 2.61059e+07 2.61064e+07 2.61066e+07 2.61065e+07 2.61067e+07 2.61072e+07
          2.61079e+07 2.61086e+07 2.61094e+07 2.61102e+07 2.6111e+07 2.61118e+07 2.61126e+07 2.61132e+07 2.61136e+07 2.61138e+07 2.60697e+07 2.60706e+07
          2.60715e+07 2.60724e+07 2.60735e+07 2.60747e+07 2.60761e+07 2.60776e+07 2.60792e+07 2.60797e+07 2.60801e+07 2.60803e+07 2.60806e+07 2.60809e+07
          2.60813e+07 2.60818e+07 2.60824e+07 2.6083e+07 2.60837e+07 2.60843e+07 2.6085e+07 2.60855e+07 2.6086e+07 2.60863e+07 2.60864e+07 2.60436e+07
          2.60445e+07 2.60455e+07 2.60465e+07 2.60476e+07 2.60488e+07 2.60502e+07 2.60517e+07 2.60532e+07 2.60537e+07 2.60541e+07 2.60543e+07 2.60546e+07
          2.60549e+07 2.60552e+07 2.60556e+07 2.60561e+07 2.60566e+07 2.60571e+07 2.60577e+07 2.60582e+07 2.60586e+07 2.6059e+07 2.60592e+07 2.60593e+07
          2.60174e+07 2.60184e+07 2.60194e+07 2.60204e+07 2.60216e+07 2.60228e+07 2.60241e+07 2.60257e+07 2.60273e+07 2.60278e+07 2.60282e+07 2.60284e+07
          2.60287e+07 2.60288e+07 2.6029e+07 2.60294e+07 2.60297e+07 2.60301e+07 2.60306e+07 2.6031e+07 2.60314e+07 2.60318e+07 2.60321e+07 2.60322e+07
          2.60323e+07 2.59912e+07 2.59923e+07 2.59933e+07 2.59943e+07 2.59954e+07 2.59966e+07 2.5998e+07 2.59994e+07 2.60013e+07 2.60021e+07 2.60026e+07
          2.60028e+07 2.60027e+07 2.60027e+07 2.60028e+07 2.6003e+07 2.60033e+07 2.60037e+07 2.6004e+07 2.60044e+07 2.60048e+07 2.6005e+07 2.60053e+07
          2.60054e+07 2.60055e+07 2.59651e+07 2.59662e+07 2.59672e+07 2.59681e+07 2.59692e+07 2.59703e+07 2.59716e+07 2.5973e+07 2.59744e+07 2.5976e+07
          2.59766e+07 2.59768e+07 2.59764e+07 2.59764e+07 2.59764e+07 2.59766e+07 2.59769e+07 2.59772e+07 2.59775e+07 2.59778e+07 2.59781e+07 2.59784e+07
          2.59786e+07 2.59787e+07 2.59787e+07 2.59392e+07 2.59404e+07 2.5941e+07 2.59418e+07 2.59428e+07 2.59439e+07 2.59452e+07 2.59464e+07 2.59477e+07
          2.59488e+07 2.59495e+07 2.59498e+07 2.59499e+07 2.59499e+07 2.595e+07 2.59502e+07 2.59504e+07 2.59507e+07 2.5951e+07 2.59512e+07 2.59515e+07
          2.59517e+07 2.59519e+07 2.5952e+07 2.59521e+07 2.59164e+07 2.59143e+07 2.59146e+07 2.59154e+07 2.59164e+07 2.59174e+07 2.59186e+07 2.59199e+07
          2.5921e+07 2.59221e+07 2.59228e+07 2.59231e+07 2.59233e+07 2.59234e+07 2.59235e+07 2.59237e+07 2.59239e+07 2.59241e+07 2.59244e+07 2.59247e+07
          2.5925e+07 2.59252e+07 2.59254e+07 2.59255e+07 2.59255e+07
        </DataArray>
        <DataArray type="Float32" Name="density_l" NumberOfComponents="1" format="ascii">
          1082.34 1082.34 1082.33 1082.33 1082.34 1082.33 1082.34 1082.33 1082.34 1082.33 1082.34 1082.33
          1082.34 1082.33 1082.34 1082.33 1082.34 1082.33 1082.34 1082.33 1082.34 1082.33 1082.34 1082.33
          1082.34 1082.33 1082.34 1082.33 1082.34 1082.33 1082.35 1082.33 1082.35 1082.33 1082.35 1082.34
          1082.35 1082.34 1082.35 1082.34 1082.35 1082.34 1082.35 1082.34 1082.35 1082.34 1082.35 1082.34
          1082.35 1082.35 1082.32 1082.32 1082.32 1082.32 1082.32 1082.32 1082.32 1082.32 1082.31 1082.3
          1082.3 1082.3 1082.32 1082.32 1082.32 1082.32 1082.32 1082.32 1082.32 1082.33 1082.33 1082.33
          1082.33 1082.33 1084.5 1082.31 1082.31 1082.31 1082.31 1082.31 1082.31 1082.31 1082.31 1082.29
          1019.39 1019.36 1019.76 1082.29 1082.31 1082.31 1082.31 1082.31 1082.31 1082.31 1082.31 1082.31
          1082.31 1082.32 1082.34 1086.65 1082.3 1082.3 1082.3 1082.3 1082.3 1082.3 1082.3 1082.3
          1082.25 1019.22 1019.15 1019.45 1082.28 1082.3 1082.3 1082.3 1082.3 1082.3 1082.3 1082.3
          1082.3 1082.3 1082.3 1082.33 1086.64 1082.29 1082.29 1082.29 1082.29 1082.29 1082.29 1082.29
          1082.29 1082.22 1019.21 1019.14 1019.38 1082.27 1082.29 1082.29 1082.29 1082.29 1082.29 1082.29
          1082.29 1082.29 1082.29 1082.29 1082.32 1086.63 1082.27 1082.27 1082.27 1082.28 1082.28 1082.28
          1082.28 1082.28 1082.2 1019.2 1019.13 1019.33 1082.25 1082.28 1082.28 1082.28 1082.28 1082.28
          1082.28 1082.28 1082.28 1082.28 1082.28 1082.29 1084.46 1082.26 1082.26 1082.26 1082.26 1082.26
          1082.27 1082.27 1082.27 1082.17 1019.19 1019.12 1019.27 1082.24 1082.27 1082.27 1082.27 1082.27
          1082.27 1082.27 1082.27 1082.27 1082.27 1082.27 1082.27 1082.28 1082.25 1082.25 1082.25 1082.25
          1082.25 1082.25 1082.25 1082.25 1082.12 1019.18 1019.11 1019.19 1082.22 1082.26 1082.26 1082.26
          1082.26 1082.26 1082.26 1082.26 1082.26 1082.26 1082.26 1082.26 1082.26 1082.24 1082.24 1082.24
          1082.24 1082.24 1082.24 1082.24 1082.24 1082.21 1019.17 1019.1 1019.17 1082.22 1082.25 1082.25
          1082.25 1082.25 1082.25 1082.25 1082.25 1082.25 1082.25 1082.25 1082.25 1082.25 1082.23 1082.23
          1082.23 1082.23 1082.23 1082.23 1082.23 1082.23 1082.2 1019.17 1019.09 1019.17 1082.21 1082.23
          1082.24 1082.24 1082.24 1082.24 1082.24 1082.24 1082.24 1082.24 1082.24 1082.24 1082.24 1082.22
          1082.22 1082.22 1082.22 1082.22 1082.22 1082.22 1082.22 1082.19 1019.16 1019.08 1019.16 1082.2
          1082.22 1082.22 1082.22 1082.22 1082.22 1082.23 1082.23 1082.23 1082.23 1082.23 1082.23 1082.23
          1082.21 1082.21 1082.21 1082.21 1082.21 1082.21 1082.21 1082.21 1082.18 1019.15 1019.07 1019.15
          1082.19 1082.21 1082.21 1082.21 1082.21 1082.21 1082.21 1082.21 1082.21 1082.21 1082.21 1082.21
          1082.21 1082.2 1082.2 1082.2 1082.2 1082.2 1082.2 1082.2 1082.2 1082.17 1019.19 1019.14
          1019.19 1082.18 1082.2 1082.2 1082.2 1082.2 1082.2 1082.2 1082.2 1082.2 1082.2 1082.2
          1082.2 1082.2 1082.19 1082.19 1082.19 1082.19 1082.19 1082.19 1082.19 1082.19 1082.18 1082.17
          1082.16 1082.17 1082.19 1082.19 1082.19 1082.19 1082.19 1082.19 1082.19 1082.19 1082.19 1082.19
          1082.19 1082.19 1082.19 1082.18 1082.18 1082.18 1082.18 1082.18 1082.18 1082.18 1082.18 1082.18
          1082.18 1082.18 1082.18 1082.18 1082.18 1082.18 1082.18 1082.18 1082.18 1082.18 1082.18 1082.18
          1082.18 1082.18 1082.18 1082.18 1082.17 1082.17 1082.17 1082.17 1082.17 1082.17 1082.17 1082.17
          1082.17 1082.17 1082.17 1082.17 1082.17 1082.17 1082.17 1082.17 1082.17 1082.17 1082.17 1082.17
          1082.17 1082.17 1082.17 1082.17 1082.17
        </DataArray>
        <DataArray type="Float32" Name="density_g" NumberOfComponents="1" format="ascii">
          969.126 969.144 969.023 969.026 969.151 969.032 969.156 969.037 969.16 969.041 969.164 969.045
          969.167 969.048 969.17 969.051 969.172 969.053 969.175 969.055 969.178 969.057 969.182 969.062
          969.187 969.067 969.192 969.073 969.198 969.078 969.203 969.084 969.208 969.089 969.214 969.094
          969.219 969.099 969.224 969.104 969.228 969.109 969.233 969.114 969.237 969.118 969.24 969.122
          969.241 969.121 968.906 968.91 968.914 968.918 968.922 968.926 968.929 968.932 968.853 968.694
          968.616 968.701 968.867 968.953 968.959 968.964 968.97 968.975 968.98 968.985 968.99 968.995
          969 969.002 967.065 968.788 968.792 968.796 968.8 968.804 968.807 968.811 968.813 968.575
          528.714 528.586 530.236 968.588 968.834 968.84 968.845 968.85 968.855 968.86 968.865 968.87
          968.875 968.881 968.879 965.02 968.67 968.674 968.678 968.682 968.685 968.689 968.693 968.696
          968.042 527.633 527.327 528.563 968.39 968.716 968.721 968.726 968.731 968.736 968.741 968.746
          968.751 968.756 968.762 968.759 964.899 968.552 968.555 968.559 968.563 968.567 968.571 968.576
          968.578 967.704 527.194 526.889 527.901 968.273 968.598 968.603 968.607 968.612 968.617 968.621
          968.626 968.631 968.636 968.641 968.638 964.776 968.433 968.437 968.441 968.445 968.449 968.453
          968.458 968.461 967.433 526.757 526.452 527.291 968.156 968.48 968.484 968.489 968.493 968.497
          968.502 968.506 968.511 968.515 968.52 968.521 966.58 968.315 968.318 968.322 968.326 968.33
          968.335 968.34 968.344 967.066 526.32 526.016 526.637 968.039 968.363 968.366 968.37 968.374
          968.378 968.382 968.386 968.39 968.395 968.398 968.401 968.4 968.196 968.199 968.203 968.207
          968.211 968.216 968.222 968.224 966.403 525.885 525.583 525.921 967.813 968.244 968.247 968.251
          968.254 968.258 968.262 968.266 968.27 968.274 968.278 968.28 968.281 968.1 968.103 968.107
          968.111 968.116 968.121 968.127 968.133 967.668 525.526 525.223 525.538 967.81 968.149 968.151
          968.154 968.157 968.161 968.165 968.168 968.172 968.175 968.178 968.18 968.181 967.981 967.985
          967.989 967.994 967.998 968.004 968.01 968.016 967.597 525.073 524.768 525.097 967.708 968.031
          968.033 968.036 968.038 968.041 968.044 968.047 968.05 968.052 968.055 968.056 968.056 967.862
          967.867 967.871 967.876 967.881 967.886 967.892 967.899 967.491 524.623 524.318 524.651 967.59
          967.913 967.915 967.917 967.919 967.921 967.924 967.926 967.928 967.93 967.932 967.933 967.933
          967.744 967.748 967.753 967.757 967.762 967.768 967.774 967.781 967.363 524.175 523.871 524.197
          967.471 967.795 967.796 967.797 967.799 967.801 967.803 967.805 967.807 967.808 967.81 967.81
          967.811 967.625 967.629 967.634 967.639 967.644 967.649 967.655 967.662 967.268 523.964 523.74
          523.977 967.41 967.676 967.677 967.678 967.679 967.681 967.682 967.684 967.686 967.687 967.688
          967.689 967.689 967.506 967.511 967.515 967.52 967.524 967.53 967.535 967.542 967.467 967.226
          967.178 967.256 967.476 967.557 967.557 967.558 967.559 967.561 967.562 967.563 967.565 967.566
          967.567 967.567 967.567 967.388 967.394 967.397 967.4 967.405 967.41 967.415 967.421 967.427
          967.431 967.435 967.436 967.436 967.437 967.437 967.438 967.439 967.44 967.441 967.443 967.444
          967.445 967.446 967.446 967.446 967.285 967.275 967.276 967.28 967.284 967.289 967.295 967.3
          967.306 967.31 967.313 967.315 967.316 967.316 967.317 967.317 967.318 967.32 967.321 967.322
          967.323 967.324 967.325 967.326 967.326
        </DataArray>
        <DataArray type="Float32" Name="saturation_l" NumberOfComponents="1" format="ascii">
          1 1 1 1 1 1 1 1 1 1 1 1
          1 1 1 1 1 1 1 1 1 1 1 1
          1 1 1 1 1 1 1 1 1 1 1 1
          1 1 1 1 1 1 1 1 1 1 1 1
          1 1 1 1 1 1 1 1 1 1 1 1
          1 1 1 1 1 1 1 1 1 1 1 1
          1 1 1 1 1 1 1 1 1 1 1 1
          1 1 1 1 1 1 1 1 1 1 1 1
          1 1 1 1 1 1 1 1 1 1 1 1
          1 1 1 1 1 1 1 1 1 1 1 1
          1 1 1 1 1 1 1 1 1 1 1 1
          1 1 1 1 1 1 1 1 1 1 1 1
          1 1 1 1 1 1 1 1 1 1 1 1
          1 1 1 1 1 1 1 1 1 1 1 1
          1 1 1 1 1 1 1 1 1 1 1 1
          1 1 1 1 1 1 1 1 1 1 1 1
          1 1 1 1 1 1 1 1 1 1 1 1
          1 1 1 1 1 1 1 1 1 1 1 1
          1 1 1 1 1 1 1 1 1 1 1 1
          1 1 1 1 1 1 1 1 1 1 1 1
          1 1 1 1 1 1 1 1 1 1 1 1
          1 1 1 1 1 1 1 1 1 1 1 1
          1 1 1 1 1 1 1 1 1 1 1 1
          1 1 1 1 1 1 1 1 1 1 1 1
          1 1 1 1 1 1 1 1 1 1 1 1
          1 1 1 1 1 1 1 1 1 1 1 1
          1 1 1 1 1 1 1 1 1 1 1 1
          1 1 1 1 1 1 1 1 1 1 1 1
          1 1 1 1 1 1 1 1 1 1 1 1
          1 1 1 1 1 1 1 1 1 1 1 1
          1 1 1 1 1 1 1 1 1 1 1 1
          1 1 1 1 1 1 1 1 1 1 1 1
          1 1 1 1 1 1 1 1 1 1 1 1
          1 1 1 1 1 1 1 1 1 1 1 1
          1 1 1 1 1 1 1 1 1 1 1 1
          1 1 1 1 1
        </DataArray>
        <DataArray type="Float32" Name="saturation_g" NumberOfComponents="1" format="ascii">
          0 0 0 0 0 0 0 0 0 0 0 0
          0 0 0 0 0 0 0 0 0 0 0 0
          0 0 0 0 0 0 0 0 0 0 0 0
          0 0 0 0 0 0 0 0 0 0 0 0
          0 0 0 0 0 0 0 0 0 0 0 0
          0 0 0 0 0 0 0 0 0 0 0 0
          0 0 0 0 0 0 0 0 0 0 0 0
          0 0 0 0 0 0 0 0 0 0 0 0
          0 0 0 0 0 0 0 0 0 0 0 0
          0 0 0 0 0 0 0 0 0 0 0 0
          0 0 0 0 0 0 0 0 0 0 0 0
          0 0 0 0 0 0 0 0 0 0 0 0
          0 0 0 0 0 0 0 0 0 0 0 0
          0 0 0 0 0 0 0 0 0 0 0 0
          0 0 0 0 0 0 0 0 0 0 0 0
          0 0 0 0 0 0 0 0 0 0 0 0
          0 0 0 0 0 0 0 0 0 0 0 0
          0 0 0 0 0 0 0 0 0 0 0 0
          0 0 0 0 0 0 0 0 0 0 0 0
          0 0 0 0 0 0 0 0 0 0 0 0
          0 0 0 0 0 0 0 0 0 0 0 0
          0 0 0 0 0 0 0 0 0 0 0 0
          0 0 0 0 0 0 0 0 0 0 0 0
          0 0 0 0 0 0 0 0 0 0 0 0
          0 0 0 0 0 0 0 0 0 0 0 0
          0 0 0 0 0 0 0 0 0 0 0 0
          0 0 0 0 0 0 0 0 0 0 0 0
          0 0 0 0 0 0 0 0 0 0 0 0
          0 0 0 0 0 0 0 0 0 0 0 0
          0 0 0 0 0 0 0 0 0 0 0 0
          0 0 0 0 0 0 0 0 0 0 0 0
          0 0 0 0 0 0 0 0 0 0 0 0
          0 0 0 0 0 0 0 0 0 0 0 0
          0 0 0 0 0 0 0 0 0 0 0 0
          0 0 0 0 0 0 0 0 0 0 0 0
          0 0 0 0 0
        </DataArray>
        <DataArray type="Float32" Name="relativePerm_l" NumberOfComponents="1" format="ascii">
          1 1 1 1 1 1 1 1 1 1 1 1
          1 1 1 1 1 1 1 1 1 1 1 1
          1 1 1 1 1 1 1 1 1 1 1 1
          1 1 1 1 1 1 1 1 1 1 1 1
          1 1 1 1 1 1 1 1 1 1 1 1
          1 1 1 1 1 1 1 1 1 1 1 1
          1 1 1 1 1 1 1 1 1 1 1 1
          1 1 1 1 1 1 1 1 1 1 1 1
          1 1 1 1 1 1 1 1 1 1 1 1
          1 1 1 1 1 1 1 1 1 1 1 1
          1 1 1 1 1 1 1 1 1 1 1 1
          1 1 1 1 1 1 1 1 1 1 1 1
          1 1 1 1 1 1 1 1 1 1 1 1
          1 1 1 1 1 1 1 1 1 1 1 1
          1 1 1 1 1 1 1 1 1 1 1 1
          1 1 1 1 1 1 1 1 1 1 1 1
          1 1 1 1 1 1 1 1 1 1 1 1
          1 1 1 1 1 1 1 1 1 1 1 1
          1 1 1 1 1 1 1 1 1 1 1 1
          1 1 1 1 1 1 1 1 1 1 1 1
          1 1 1 1 1 1 1 1 1 1 1 1
          1 1 1 1 1 1 1 1 1 1 1 1
          1 1 1 1 1 1 1 1 1 1 1 1
          1 1 1 1 1 1 1 1 1 1 1 1
          1 1 1 1 1 1 1 1 1 1 1 1
          1 1 1 1 1 1 1 1 1 1 1 1
          1 1 1 1 1 1 1 1 1 1 1 1
          1 1 1 1 1 1 1 1 1 1 1 1
          1 1 1 1 1 1 1 1 1 1 1 1
          1 1 1 1 1 1 1 1 1 1 1 1
          1 1 1 1 1 1 1 1 1 1 1 1
          1 1 1 1 1 1 1 1 1 1 1 1
          1 1 1 1 1 1 1 1 1 1 1 1
          1 1 1 1 1 1 1 1 1 1 1 1
          1 1 1 1 1 1 1 1 1 1 1 1
          1 1 1 1 1
        </DataArray>
        <DataArray type="Float32" Name="relativePerm_g" NumberOfComponents="1" format="ascii">
          0 0 0 0 0 0 0 0 0 0 0 0
          0 0 0 0 0 0 0 0 0 0 0 0
          0 0 0 0 0 0 0 0 0 0 0 0
          0 0 0 0 0 0 0 0 0 0 0 0
          0 0 0 0 0 0 0 0 0 0 0 0
          0 0 0 0 0 0 0 0 0 0 0 0
          0 0 0 0 0 0 0 0 0 0 0 0
          0 0 0 0 0 0 0 0 0 0 0 0
          0 0 0 0 0 0 0 0 0 0 0 0
          0 0 0 0 0 0 0 0 0 0 0 0
          0 0 0 0 0 0 0 0 0 0 0 0
          0 0 0 0 0 0 0 0 0 0 0 0
          0 0 0 0 0 0 0 0 0 0 0 0
          0 0 0 0 0 0 0 0 0 0 0 0
          0 0 0 0 0 0 0 0 0 0 0 0
          0 0 0 0 0 0 0 0 0 0 0 0
          0 0 0 0 0 0 0 0 0 0 0 0
          0 0 0 0 0 0 0 0 0 0 0 0
          0 0 0 0 0 0 0 0 0 0 0 0
          0 0 0 0 0 0 0 0 0 0 0 0
          0 0 0 0 0 0 0 0 0 0 0 0
          0 0 0 0 0 0 0 0 0 0 0 0
          0 0 0 0 0 0 0 0 0 0 0 0
          0 0 0 0 0 0 0 0 0 0 0 0
          0 0 0 0 0 0 0 0 0 0 0 0
          0 0 0 0 0 0 0 0 0 0 0 0
          0 0 0 0 0 0 0 0 0 0 0 0
          0 0 0 0 0 0 0 0 0 0 0 0
          0 0 0 0 0 0 0 0 0 0 0 0
          0 0 0 0 0 0 0 0 0 0 0 0
          0 0 0 0 0 0 0 0 0 0 0 0
          0 0 0 0 0 0 0 0 0 0 0 0
          0 0 0 0 0 0 0 0 0 0 0 0
          0 0 0 0 0 0 0 0 0 0 0 0
          0 0 0 0 0 0 0 0 0 0 0 0
          0 0 0 0 0
        </DataArray>
        <DataArray type="Float32" Name="porosity" NumberOfComponents="1" format="ascii">
          0.3 0.3 0.3 0.3 0.3 0.3 0.3 0.3 0.3 0.3 0.3 0.3
          0.3 0.3 0.3 0.3 0.3 0.3 0.3 0.3 0.3 0.3 0.3 0.3
          0.3 0.3 0.3 0.3 0.3 0.3 0.3 0.3 0.3 0.3 0.3 0.3
          0.3 0.3 0.3 0.3 0.3 0.3 0.3 0.3 0.3 0.3 0.3 0.3
          0.3 0.3 0.3 0.3 0.3 0.3 0.3 0.3 0.3 0.3 0.3 0.3
          0.3 0.3 0.3 0.3 0.3 0.3 0.3 0.3 0.3 0.3 0.3 0.3
          0.3 0.3 0.3 0.3 0.3 0.3 0.3 0.3 0.3 0.3 0.3 0.3
          0.3 0.3 0.3 0.3 0.3 0.3 0.3 0.3 0.3 0.3 0.3 0.3
          0.3 0.3 0.3 0.3 0.3 0.3 0.3 0.3 0.3 0.3 0.3 0.3
          0.3 0.3 0.3 0.3 0.3 0.3 0.3 0.3 0.3 0.3 0.3 0.3
          0.3 0.3 0.3 0.3 0.3 0.3 0.3 0.3 0.3 0.3 0.3 0.3
          0.3 0.3 0.3 0.3 0.3 0.3 0.3 0.3 0.3 0.3 0.3 0.3
          0.3 0.3 0.3 0.3 0.3 0.3 0.3 0.3 0.3 0.3 0.3 0.3
          0.3 0.3 0.3 0.3 0.3 0.3 0.3 0.3 0.3 0.3 0.3 0.3
          0.3 0.3 0.3 0.3 0.3 0.3 0.3 0.3 0.3 0.3 0.3 0.3
          0.3 0.3 0.3 0.3 0.3 0.3 0.3 0.3 0.3 0.3 0.3 0.3
          0.3 0.3 0.3 0.3 0.3 0.3 0.3 0.3 0.3 0.3 0.3 0.3
          0.3 0.3 0.3 0.3 0.3 0.3 0.3 0.3 0.3 0.3 0.3 0.3
          0.3 0.3 0.3 0.3 0.3 0.3 0.3 0.3 0.3 0.3 0.3 0.3
          0.3 0.3 0.3 0.3 0.3 0.3 0.3 0.3 0.3 0.3 0.3 0.3
          0.3 0.3 0.3 0.3 0.3 0.3 0.3 0.3 0.3 0.3 0.3 0.3
          0.3 0.3 0.3 0.3 0.3 0.3 0.3 0.3 0.3 0.3 0.3 0.3
          0.3 0.3 0.3 0.3 0.3 0.3 0.3 0.3 0.3 0.3 0.3 0.3
          0.3 0.3 0.3 0.3 0.3 0.3 0.3 0.3 0.3 0.3 0.3 0.3
          0.3 0.3 0.3 0.3 0.3 0.3 0.3 0.3 0.3 0.3 0.3 0.3
          0.3 0.3 0.3 0.3 0.3 0.3 0.3 0.3 0.3 0.3 0.3 0.3
          0.3 0.3 0.3 0.3 0.3 0.3 0.3 0.3 0.3 0.3 0.3 0.3
          0.3 0.3 0.3 0.3 0.3 0.3 0.3 0.3 0.3 0.3 0.3 0.3
          0.3 0.3 0.3 0.3 0.3 0.3 0.3 0.3 0.3 0.3 0.3 0.3
          0.3 0.3 0.3 0.3 0.3 0.3 0.3 0.3 0.3 0.3 0.3 0.3
          0.3 0.3 0.3 0.3 0.3 0.3 0.3 0.3 0.3 0.3 0.3 0.3
          0.3 0.3 0.3 0.3 0.3 0.3 0.3 0.3 0.3 0.3 0.3 0.3
          0.3 0.3 0.3 0.3 0.3 0.3 0.3 0.3 0.3 0.3 0.3 0.3
          0.3 0.3 0.3 0.3 0.3 0.3 0.3 0.3 0.3 0.3 0.3 0.3
          0.3 0.3 0.3 0.3 0.3 0.3 0.3 0.3 0.3 0.3 0.3 0.3
          0.3 0.3 0.3 0.3 0.3
        </DataArray>
        <DataArray type="Float32" Name="temperature" NumberOfComponents="1" format="ascii">
          293.15 293.15 293.15 293.15 293.15 293.15 293.15 293.15 293.15 293.15 293.15 293.15
          293.15 293.15 293.15 293.15 293.15 293.15 293.15 293.15 293.15 293.15 293.15 293.15
          293.15 293.15 293.15 293.15 293.15 293.15 293.15 293.15 293.15 293.15 293.15 293.15
          293.15 293.15 293.15 293.15 293.15 293.15 293.15 293.15 293.15 293.15 293.15 293.15
          293.15 293.151 293.15 293.15 293.15 293.15 293.15 293.15 293.15 293.15 293.171 293.212
          293.233 293.212 293.171 293.15 293.15 293.15 293.15 293.15 293.15 293.15 293.15 293.15
          293.15 293.151 293.654 293.15 293.15 293.15 293.15 293.15 293.15 293.15 293.15 293.212
          392.889 392.925 392.48 293.212 293.15 293.15 293.15 293.15 293.15 293.15 293.15 293.15
          293.15 293.15 293.153 294.152 293.15 293.15 293.15 293.15 293.15 293.15 293.15 293.15
          293.32 393.065 393.149 392.815 293.233 293.15 293.15 293.15 293.15 293.15 293.15 293.15
          293.15 293.15 293.15 293.153 294.152 293.15 293.15 293.15 293.15 293.15 293.15 293.15
          293.15 293.378 393.066 393.15 392.876 293.233 293.15 293.15 293.15 293.15 293.15 293.15
          293.15 293.15 293.15 293.15 293.153 294.152 293.15 293.15 293.15 293.15 293.15 293.15
          293.15 293.151 293.418 393.066 393.15 392.923 293.233 293.15 293.15 293.15 293.15 293.15
          293.15 293.15 293.15 293.15 293.15 293.151 293.654 293.15 293.15 293.15 293.15 293.15
          293.15 293.15 293.151 293.482 393.066 393.15 392.983 293.233 293.15 293.15 293.15 293.15
          293.15 293.15 293.15 293.15 293.15 293.15 293.15 293.151 293.15 293.15 293.15 293.15
          293.15 293.15 293.15 293.151 293.623 393.066 393.15 393.059 293.261 293.15 293.15 293.15
          293.15 293.15 293.15 293.15 293.15 293.15 293.15 293.15 293.15 293.15 293.15 293.15
          293.15 293.15 293.15 293.15 293.15 293.273 393.066 393.15 393.066 293.238 293.15 293.15
          293.15 293.15 293.15 293.15 293.15 293.15 293.15 293.15 293.15 293.15 293.15 293.15
          293.15 293.15 293.15 293.15 293.15 293.15 293.26 393.066 393.15 393.062 293.233 293.15
          293.15 293.15 293.15 293.15 293.15 293.15 293.15 293.15 293.15 293.15 293.15 293.15
          293.15 293.15 293.15 293.15 293.15 293.15 293.15 293.257 393.066 393.15 393.061 293.233
          293.15 293.15 293.15 293.15 293.15 293.15 293.15 293.15 293.15 293.15 293.15 293.15
          293.15 293.15 293.15 293.15 293.15 293.15 293.15 293.15 293.26 393.066 393.15 393.063
          293.233 293.15 293.15 293.15 293.15 293.15 293.15 293.15 293.15 293.15 293.15 293.15
          293.15 293.15 293.15 293.15 293.15 293.15 293.15 293.15 293.15 293.254 393.002 393.066
          393.002 293.219 293.15 293.15 293.15 293.15 293.15 293.15 293.15 293.15 293.15 293.15
          293.15 293.15 293.15 293.15 293.15 293.15 293.15 293.15 293.15 293.15 293.171 293.235
          293.248 293.228 293.171 293.15 293.15 293.15 293.15 293.15 293.15 293.15 293.15 293.15
          293.15 293.15 293.15 293.15 293.15 293.15 293.15 293.15 293.15 293.15 293.15 293.15
          293.15 293.15 293.15 293.15 293.15 293.15 293.15 293.15 293.15 293.15 293.15 293.15
          293.15 293.15 293.15 293.15 293.15 293.15 293.15 293.15 293.15 293.15 293.15 293.15
          293.15 293.15 293.15 293.15 293.15 293.15 293.15 293.15 293.15 293.15 293.15 293.15
          293.15 293.15 293.15 293.15 293.15
        </DataArray>
        <DataArray type="Float32" Name="moleFrac_l^Brine" NumberOfComponents="1" format="ascii">