<?xml version="1.0"?>
<VTKFile type="UnstructuredGrid" version="0.1" byte_order="LittleEndian">
  <UnstructuredGrid>
    <Piece NumberOfCells="384" NumberOfPoints="425">
      <CellData Scalars="pressure_l">
        <DataArray type="Float32" Name="pressure_l" NumberOfComponents="1" format="ascii">
          2.63096e+07 2.63106e+07 2.63115e+07 2.63122e+07 2.63129e+07 2.63134e+07 2.63138e+07 2.63141e+07 2.63143e+07 2.63146e+07 2.63152e+07 2.63161e+07
          2.63174e+07 2.63188e+07 2.63201e+07 2.63214e+07 2.63226e+07 2.63238e+07 2.63249e+07 2.6326e+07 2.63271e+07 2.63281e+07 2.63289e+07 2.63294e+07
          2.62832e+07 2.62842e+07 2.6285e+07 2.62858e+07 2.62865e+07 2.6287e+07 2.62874e+07 2.62876e+07 2.62875e+07 2.62878e+07 2.62883e+07 2.62892e+07
          2.62908e+07 2.62923e+07 2.62937e+07 2.62949e+07 2.62961e+07 2.62973e+07 2.62984e+07 2.62995e+07 2.63006e+07 2.63017e+07 2.63027e+07 2.63034e+07
          2.62569e+07 2.62578e+07 2.62587e+07 2.62595e+07 2.62602e+07 2.62608e+07 2.62612e+07 2.62615e+07 2.62613e+07 2.62614e+07 2.62618e+07 2.62623e+07
          2.62644e+07 2.62659e+07 2.62673e+07 2.62685e+07 2.62697e+07 2.62708e+07 2.6272e+07 2.62731e+07 2.62742e+07 2.62754e+07 2.62766e+07 2.62781e+07
          2.62307e+07 2.62315e+07 2.62324e+07 2.62332e+07 2.6234e+07 2.62347e+07 2.62353e+07 2.62358e+07 2.62359e+07 2.62361e+07 2.62364e+07 2.62368e+07
          2.62384e+07 2.62397e+07 2.6241e+07 2.62422e+07 2.62433e+07 2.62444e+07 2.62455e+07 2.62466e+07 2.62477e+07 2.62489e+07 2.62503e+07 2.62521e+07
          2.62044e+07 2.62053e+07 2.62062e+07 2.6207e+07 2.62078e+07 2.62087e+07 2.62094e+07 2.62102e+07 2.62104e+07 2.62107e+07 2.6211e+07 2.62113e+07
          2.62125e+07 2.62137e+07 2.62148e+07 2.62159e+07 2.62169e+07 2.62179e+07 2.6219e+07 2.622e+07 2.62211e+07 2.62223e+07 2.62237e+07 2.62254e+07
          2.61782e+07 2.6179e+07 2.61799e+07 2.61808e+07 2.61817e+07 2.61827e+07 2.61836e+07 2.61846e+07 2.61849e+07 2.61852e+07 2.61855e+07 2.61858e+07
          2.61868e+07 2.61877e+07 2.61886e+07 2.61896e+07 2.61905e+07 2.61915e+07 2.61925e+07 2.61935e+07 2.61945e+07 2.61955e+07 2.61967e+07 2.61982e+07
          2.61519e+07 2.61528e+07 2.61537e+07 2.61546e+07 2.61556e+07 2.61567e+07 2.61578e+07 2.6159e+07 2.61594e+07 2.61597e+07 2.616e+07 2.61603e+07
          2.6161e+07 2.61617e+07 2.61625e+07 2.61633e+07 2.61642e+07 2.6165e+07 2.61659e+07 2.61668e+07 2.61677e+07 2.61686e+07 2.61695e+07 2.61702e+07
          2.61256e+07 2.61265e+07 2.61274e+07 2.61284e+07 2.61294e+07 2.61306e+07 2.61319e+07 2.61334e+07 2.61339e+07 2.61343e+07 2.61346e+07 2.61348e+07
          2.61352e+07 2.61357e+07 2.61363e+07 2.6137e+07 2.61378e+07 2.61386e+07 2.61394e+07 2.61402e+07 2.6141e+07 2.61418e+07 2.61424e+07 2.61428e+07
          2.60993e+07 2.61001e+07 2.6101e+07 2.6102e+07 2.61031e+07 2.61044e+07 2.61059e+07 2.61077e+07 2.61085e+07 2.6109e+07 2.61093e+07 2.61094e+07
          2.61093e+07 2.61095e+07 2.611e+07 2.61106e+07 2.61113e+07 2.61121e+07 2.61129e+07 2.61136e+07 2.61144e+07 2.61151e+07 2.61156e+07 2.61159e+07
          2.60731e+07 2.60739e+07 2.60749e+07 2.60759e+07 2.60771e+07 2.60785e+07 2.608e+07 2.60819e+07 2.60827e+07 2.60833e+07 2.60836e+07 2.60837e+07
          2.60835e+07 2.60836e+07 2.60839e+07 2.60844e+07 2.6085e+07 2.60856e+07 2.60863e+07 2.6087e+07 2.60877e+07 2.60882e+07 2.60887e+07 2.60889e+07
          2.60471e+07 2.6048e+07 2.6049e+07 2.60501e+07 2.60514e+07 2.60528e+07 2.60544e+07 2.60561e+07 2.60567e+07 2.60572e+07 2.60575e+07 2.60576e+07
          2.60577e+07 2.60578e+07 2.6058e+07 2.60584e+07 2.60588e+07 2.60593e+07 2.60598e+07 2.60604e+07 2.60609e+07 2.60613e+07 2.60616e+07 2.60618e+07
          2.60209e+07 2.60219e+07 2.6023e+07 2.60242e+07 2.60255e+07 2.60269e+07 2.60285e+07 2.60303e+07 2.60308e+07 2.60313e+07 2.60316e+07 2.60317e+07
          2.60318e+07 2.60319e+07 2.6032e+07 2.60323e+07 2.60326e+07 2.60329e+07 2.60333e+07 2.60338e+07 2.60341e+07 2.60344e+07 2.60347e+07 2.60348e+07
          2.59947e+07 2.59958e+07 2.59969e+07 2.59981e+07 2.59994e+07 2.60009e+07 2.60026e+07 2.60044e+07 2.6005e+07 2.60055e+07 2.60058e+07 2.60059e+07
          2.6006e+07 2.60059e+07 2.60059e+07 2.60061e+07 2.60063e+07 2.60065e+07 2.60068e+07 2.60072e+07 2.60075e+07 2.60077e+07 2.60079e+07 2.6008e+07
          2.59685e+07 2.59696e+07 2.59707e+07 2.59719e+07 2.59733e+07 2.59747e+07 2.59764e+07 2.59784e+07 2.59793e+07 2.59799e+07 2.59803e+07 2.59803e+07
          2.59801e+07 2.59798e+07 2.59797e+07 2.59798e+07 2.59799e+07 2.59801e+07 2.59803e+07 2.59806e+07 2.59808e+07 2.5981e+07 2.59812e+07 2.59812e+07
          2.59422e+07 2.59433e+07 2.59444e+07 2.59456e+07 2.59469e+07 2.59484e+07 2.595e+07 2.59516e+07 2.59532e+07 2.59539e+07 2.59543e+07 2.59543e+07
          2.59538e+07 2.59535e+07 2.59534e+07 2.59534e+07 2.59535e+07 2.59536e+07 2.59538e+07 2.5954e+07 2.59542e+07 2.59544e+07 2.59545e+07 2.59546e+07
          2.59159e+07 2.59168e+07 2.59179e+07 2.59192e+07 2.59205e+07 2.59219e+07 2.59234e+07 2.59249e+07 2.59262e+07 2.5927e+07 2.59274e+07 2.59275e+07
          2.59273e+07 2.59271e+07 2.5927e+07 2.5927e+07 2.5927e+07 2.59271e+07 2.59273e+07 2.59275e+07 2.59277e+07 2.59278e+07 2.59279e+07 2.5928e+07
        </DataArray>
        <DataArray type="Float32" Name="pressure_g" NumberOfComponents="1" format="ascii">
          2.63146e+07 2.63156e+07 2.63165e+07 2.63172e+07 2.63179e+07 2.63184e+07 2.63188e+07 2.63191e+07 2.63193e+07 2.63196e+07 2.63202e+07 2.63211e+07
          2.63224e+07 2.63238e+07 2.63251e+07 2.63264e+07 2.63276e+07 2.63288e+07 2.63299e+07 2.6331e+07 2.63321e+07 2.63331e+07 2.63339e+07 2.63344e+07
          2.62882e+07 2.62892e+07 2.629e+07 2.62908e+07 2.62915e+07 2.6292e+07 2.62924e+07 2.62926e+07 2.62925e+07 2.62928e+07 2.62933e+07 2.62942e+07
          2.62958e+07 2.62973e+07 2.62987e+07 2.62999e+07 2.63011e+07 2.63023e+07 2.63034e+07 2.63045e+07 2.63056e+07 2.63067e+07 2.63077e+07 2.63084e+07
          2.62619e+07 2.62628e+07 2.62637e+07 2.62645e+07 2.62652e+07 2.62658e+07 2.62662e+07 2.62665e+07 2.62663e+07 2.62664e+07 2.62668e+07 2.62673e+07
          2.62694e+07 2.62709e+07 2.62723e+07 2.62735e+07 2.62747e+07 2.62758e+07 2.6277e+07 2.62781e+07 2.62792e+07 2.62804e+07 2.62816e+07 2.62831e+07
          2.62357e+07 2.62365e+07 2.62374e+07 2.62382e+07 2.6239e+07 2.62397e+07 2.62403e+07 2.62408e+07 2.62409e+07 2.62411e+07 2.62414e+07 2.62418e+07
          2.62434e+07 2.62447e+07 2.6246e+07 2.62472e+07 2.62483e+07 2.62494e+07 2.62505e+07 2.62516e+07 2.62527e+07 2.62539e+07 2.62553e+07 2.62571e+07
          2.62094e+07 2.62103e+07 2.62112e+07 2.6212e+07 2.62128e+07 2.62137e+07 2.62144e+07 2.62152e+07 2.62154e+07 2.62157e+07 2.6216e+07 2.62163e+07
          2.62175e+07 2.62187e+07 2.62198e+07 2.62209e+07 2.62219e+07 2.62229e+07 2.6224e+07 2.6225e+07 2.62261e+07 2.62273e+07 2.62287e+07 2.62304e+07
          2.61832e+07 2.6184e+07 2.61849e+07 2.61858e+07 2.61867e+07 2.61877e+07 2.61886e+07 2.61896e+07 2.61899e+07 2.61902e+07 2.61905e+07 2.61908e+07
          2.61918e+07 2.61927e+07 2.61936e+07 2.61946e+07 2.61955e+07 2.61965e+07 2.61975e+07 2.61985e+07 2.61995e+07 2.62005e+07 2.62017e+07 2.62032e+07
          2.61569e+07 2.61578e+07 2.61587e+07 2.61596e+07 2.61606e+07 2.61617e+07 2.61628e+07 2.6164e+07 2.61644e+07 2.61647e+07 2.6165e+07 2.61653e+07
          2.6166e+07 2.61667e+07 2.61675e+07 2.61683e+07 2.61692e+07 2.617e+07 2.61709e+07 2.61718e+07 2.61727e+07 2.61736e+07 2.61745e+07 2.61752e+07
          2.61306e+07 2.61315e+07 2.61324e+07 2.61334e+07 2.61344e+07 2.61356e+07 2.61369e+07 2.61384e+07 2.61389e+07 2.61393e+07 2.61396e+07 2.61398e+07
          2.61402e+07 2.61407e+07 2.61413e+07 2.6142e+07 2.61428e+07 2.61436e+07 2.61444e+07 2.61452e+07 2.6146e+07 2.61468e+07 2.61474e+07 2.61478e+07
          2.61043e+07 2.61051e+07 2.6106e+07 2.6107e+07 2.61081e+07 2.61094e+07 2.61109e+07 2.61127e+07 2.61135e+07 2.6114e+07 2.61143e+07 2.61144e+07
          2.61143e+07 2.61145e+07 2.6115e+07 2.61156e+07 2.61163e+07 2.61171e+07 2.61179e+07 2.61186e+07 2.61194e+07 2.61201e+07 2.61206e+07 2.61209e+07
          2.60831e+07 2.60839e+07 2.60849e+07 2.60859e+07 2.60871e+07 2.60885e+07 2.609e+07 2.60919e+07 2.60927e+07 2.60933e+07 2.60936e+07 2.60937e+07
          2.60935e+07 2.60936e+07 2.60939e+07 2.60944e+07 2.6095e+07 2.60956e+07 2.60963e+07 2.6097e+07 2.60977e+07 2.60982e+07 2.60987e+07 2.60989e+07
          2.60571e+07 2.6058e+07 2.6059e+07 2.60601e+07 2.60614e+07 2.60628e+07 2.60644e+07 2.60661e+07 2.60667e+07 2.60672e+07 2.60675e+07 2.60676e+07
          2.60677e+07 2.60678e+07 2.6068e+07 2.60684e+07 2.60688e+07 2.60693e+07 2.60698e+07 2.60704e+07 2.60709e+07 2.60713e+07 2.60716e+07 2.60718e+07
          2.60309e+07 2.60319e+07 2.6033e+07 2.60342e+07 2.60355e+07 2.60369e+07 2.60385e+07 2.60403e+07 2.60408e+07 2.60413e+07 2.60416e+07 2.60417e+07
          2.60418e+07 2.60419e+07 2.6042e+07 2.60423e+07 2.60426e+07 2.60429e+07 2.60433e+07 2.60438e+07 2.60441e+07 2.60444e+07 2.60447e+07 2.60448e+07
          2.60047e+07 2.60058e+07 2.60069e+07 2.60081e+07 2.60094e+07 2.60109e+07 2.60126e+07 2.60144e+07 2.6015e+07 2.60155e+07 2.60158e+07 2.60159e+07
          2.6016e+07 2.60159e+07 2.60159e+07 2.60161e+07 2.60163e+07 2.60165e+07 2.60168e+07 2.60172e+07 2.60175e+07 2.60177e+07 2.60179e+07 2.6018e+07
          2.59785e+07 2.59796e+07 2.59807e+07 2.59819e+07 2.59833e+07 2.59847e+07 2.59864e+07 2.59884e+07 2.59893e+07 2.59899e+07 2.59903e+07 2.59903e+07
          2.59901e+07 2.59898e+07 2.59897e+07 2.59898e+07 2.59899e+07 2.59901e+07 2.59903e+07 2.59906e+07 2.59908e+07 2.5991e+07 2.59912e+07 2.59912e+07
          2.59522e+07 2.59533e+07 2.59544e+07 2.59556e+07 2.59569e+07 2.59584e+07 2.596e+07 2.59616e+07 2.59632e+07 2.59639e+07 2.59643e+07 2.59643e+07
          2.59638e+07 2.59635e+07 2.59634e+07 2.59634e+07 2.59635e+07 2.59636e+07 2.59638e+07 2.5964e+07 2.59642e+07 2.59644e+07 2.59645e+07 2.59646e+07
          2.59259e+07 2.59268e+07 2.59279e+07 2.59292e+07 2.59305e+07 2.59319e+07 2.59334e+07 2.59349e+07 2.59362e+07 2.5937e+07 2.59374e+07 2.59375e+07
          2.59373e+07 2.59371e+07 2.5937e+07 2.5937e+07 2.5937e+07 2.59371e+07 2.59373e+07 2.59375e+07 2.59377e+07 2.59378e+07 2.59379e+07 2.5938e+07
        </DataArray>
        <DataArray type="Float32" Name="density_l" NumberOfComponents="1" format="ascii">
          1082.33 1082.33 1082.34 1082.34 1082.34 1082.34 1082.34 1082.34 1082.34 1082.34 1082.34 1082.34
          1082.34 1082.34 1082.34 1082.34 1082.34 1082.34 1082.34 1082.34 1082.34 1082.34 1082.34 1082.34
          1082.32 1082.32 1082.32 1082.32 1082.32 1082.33 1082.33 1082.33 1082.3 1082.3 1082.3 1082.3
          1082.33 1082.33 1082.33 1082.33 1082.33 1082.33 1082.33 1082.33 1082.33 1082.33 1082.33 1082.34
          1082.31 1082.31 1082.31 1082.31 1082.31 1082.31 1082.31 1082.29 1019.42 1019.32 1019.35 1019.79
          1082.29 1082.32 1082.32 1082.32 1082.32 1082.32 1082.32 1082.32 1082.32 1082.32 1082.33 1084.49
          1082.3 1082.3 1082.3 1082.3 1082.3 1082.3 1082.3 1082.26 1019.23 1019.15 1019.15 1019.46
          1082.28 1082.31 1082.31 1082.31 1082.31 1082.31 1082.31 1082.31 1082.31 1082.31 1082.32 1084.48
          1082.29 1082.29 1082.29 1082.29 1082.29 1082.29 1082.29 1082.24 1019.22 1019.14 1019.14 1019.4
          1082.27 1082.29 1082.3 1082.3 1082.3 1082.3 1082.3 1082.3 1082.3 1082.3 1082.31 1084.47
          1082.28 1082.28 1082.28 1082.28 1082.28 1082.28 1082.28 1082.21 1019.21 1019.13 1019.13 1019.35
          1082.26 1082.28 1082.28 1082.28 1082.28 1082.29 1082.29 1082.29 1082.29 1082.29 1082.3 1084.46
          1082.27 1082.27 1082.27 1082.27 1082.27 1082.27 1082.27 1082.19 1019.2 1019.12 1019.12 1019.3
          1082.25 1082.27 1082.27 1082.27 1082.27 1082.27 1082.27 1082.28 1082.28 1082.28 1082.28 1082.29
          1082.26 1082.26 1082.26 1082.26 1082.26 1082.26 1082.26 1082.16 1019.19 1019.11 1019.11 1019.24
          1082.24 1082.26 1082.26 1082.26 1082.26 1082.26 1082.26 1082.26 1082.26 1082.26 1082.26 1082.27
          1082.25 1082.25 1082.25 1082.25 1082.25 1082.25 1082.25 1082.11 1019.18 1019.1 1019.1 1019.18
          1082.21 1082.25 1082.25 1082.25 1082.25 1082.25 1082.25 1082.25 1082.25 1082.25 1082.25 1082.25
          1082.24 1082.24 1082.24 1082.24 1082.24 1082.24 1082.24 1082.2 1019.17 1019.09 1019.09 1019.17
          1082.21 1082.24 1082.24 1082.24 1082.24 1082.24 1082.24 1082.24 1082.24 1082.24 1082.24 1082.24
          1082.23 1082.23 1082.23 1082.23 1082.23 1082.23 1082.23 1082.2 1019.16 1019.08 1019.08 1019.16
          1082.21 1082.23 1082.23 1082.23 1082.23 1082.23 1082.23 1082.23 1082.23 1082.23 1082.23 1082.23
          1082.21 1082.21 1082.22 1082.22 1082.22 1082.22 1082.22 1082.19 1019.15 1019.07 1019.07 1019.15
          1082.19 1082.22 1082.22 1082.22 1082.22 1082.22 1082.22 1082.22 1082.22 1082.22 1082.22 1082.22
          1082.2 1082.2 1082.2 1082.2 1082.21 1082.21 1082.21 1082.17 1019.14 1019.07 1019.07 1019.14
          1082.18 1082.21 1082.21 1082.21 1082.21 1082.21 1082.21 1082.21 1082.21 1082.21 1082.21 1082.21
          1082.19 1082.19 1082.19 1082.19 1082.19 1082.2 1082.2 1082.16 1019.21 1019.13 1019.13 1019.21
          1082.17 1082.2 1082.2 1082.2 1082.2 1082.2 1082.2 1082.2 1082.2 1082.2 1082.2 1082.2
          1082.18 1082.18 1082.18 1082.18 1082.18 1082.18 1082.18 1082.19 1082.16 1082.16 1082.16 1082.16
          1082.19 1082.19 1082.19 1082.19 1082.19 1082.19 1082.19 1082.19 1082.19 1082.19 1082.19 1082.19
          1082.17 1082.17 1082.17 1082.17 1082.17 1082.17 1082.17 1082.17 1082.17 1082.18 1082.18 1082.18
          1082.18 1082.18 1082.18 1082.18 1082.18 1082.18 1082.18 1082.18 1082.18 1082.18 1082.18 1082.18
        </DataArray>
        <DataArray type="Float32" Name="density_g" NumberOfComponents="1" format="ascii">
          969.087 969.092 969.096 969.099 969.102 969.105 969.106 969.108 969.108 969.11 969.112 969.116
          969.122 969.129 969.135 969.14 969.146 969.151 969.156 969.161 969.165 969.17 969.174 969.176
          968.969 968.973 968.977 968.98 968.983 968.986 968.987 968.988 968.668 968.669 968.671 968.677
          969.002 969.009 969.015 969.021 969.026 969.031 969.036 969.041 969.046 969.051 969.055 969.055
          968.85 968.854 968.858 968.861 968.864 968.867 968.869 968.55 529.045 528.621 528.732 530.55
          968.565 968.89 968.896 968.902 968.907 968.912 968.917 968.922 968.927 968.932 968.934 967.001
          968.731 968.735 968.739 968.743 968.746 968.749 968.752 968.22 527.841 527.53 527.538 528.791
          968.446 968.772 968.778 968.783 968.788 968.793 968.798 968.802 968.808 968.813 968.815 966.882
          968.613 968.617 968.621 968.625 968.628 968.632 968.635 967.876 527.401 527.094 527.101 528.155
          968.33 968.654 968.659 968.664 968.669 968.674 968.678 968.683 968.688 968.693 968.695 966.761
          968.495 968.499 968.503 968.507 968.511 968.515 968.518 967.611 526.965 526.659 526.665 527.562
          968.213 968.537 968.542 968.546 968.55 968.554 968.559 968.563 968.568 968.572 968.574 966.638
          968.376 968.38 968.384 968.388 968.393 968.398 968.401 967.342 526.529 526.223 526.229 526.97
          968.096 968.42 968.424 968.427 968.431 968.435 968.439 968.443 968.447 968.451 968.455 968.454
          968.258 968.261 968.266 968.27 968.275 968.28 968.283 966.99 526.093 525.789 525.794 526.34
          967.979 968.302 968.305 968.308 968.312 968.315 968.319 968.323 968.327 968.33 968.333 968.335
          968.138 968.142 968.146 968.151 968.156 968.161 968.163 966.275 525.656 525.354 525.359 525.674
          967.623 968.184 968.186 968.189 968.192 968.196 968.199 968.203 968.206 968.209 968.212 968.213
          968.042 968.046 968.05 968.055 968.06 968.066 968.073 967.599 525.298 524.995 525.001 525.314
          967.732 968.089 968.091 968.093 968.096 968.099 968.102 968.105 968.108 968.11 968.112 968.113
          967.924 967.928 967.932 967.938 967.943 967.949 967.956 967.531 524.848 524.544 524.549 524.868
          967.649 967.972 967.973 967.975 967.977 967.979 967.981 967.984 967.986 967.988 967.989 967.99
          967.805 967.81 967.814 967.82 967.826 967.832 967.839 967.421 524.4 524.096 524.101 524.422
          967.531 967.854 967.855 967.856 967.857 967.859 967.861 967.863 967.864 967.866 967.867 967.868
          967.686 967.691 967.696 967.701 967.707 967.714 967.721 967.29 523.953 523.65 523.656 523.971
          967.412 967.736 967.736 967.737 967.738 967.739 967.741 967.742 967.743 967.744 967.745 967.746
          967.567 967.572 967.577 967.582 967.588 967.595 967.602 967.115 523.821 523.52 523.526 523.839
          967.249 967.618 967.618 967.618 967.618 967.619 967.62 967.621 967.622 967.623 967.624 967.624
          967.448 967.452 967.457 967.463 967.469 967.475 967.482 967.489 967.099 967.129 967.136 967.129
          967.499 967.499 967.498 967.498 967.498 967.499 967.5 967.501 967.502 967.502 967.503 967.503
          967.328 967.332 967.337 967.343 967.349 967.355 967.362 967.368 967.374 967.378 967.38 967.38
          967.379 967.378 967.378 967.378 967.378 967.379 967.379 967.38 967.381 967.382 967.382 967.382
        </DataArray>
        <DataArray type="Float32" Name="saturation_l" NumberOfComponents="1" format="ascii">
          1 1 1 1 1 1 1 1 1 1 1 1
          1 1 1 1 1 1 1 1 1 1 1 1
          1 1 1 1 1 1 1 1 1 1 1 1
          1 1 1 1 1 1 1 1 1 1 1 1
          1 1 1 1 1 1 1 1 1 1 1 1
          1 1 1 1 1 1 1 1 1 1 1 1
          1 1 1 1 1 1 1 1 1 1 1 1
          1 1 1 1 1 1 1 1 1 1 1 1
          1 1 1 1 1 1 1 1 1 1 1 1
          1 1 1 1 1 1 1 1 1 1 1 1
          1 1 1 1 1 1 1 1 1 1 1 1
          1 1 1 1 1 1 1 1 1 1 1 1
          1 1 1 1 1 1 1 1 1 1 1 1
          1 1 1 1 1 1 1 1 1 1 1 1
          1 1 1 1 1 1 1 1 1 1 1 1
          1 1 1 1 1 1 1 1 1 1 1 1
          1 1 1 1 1 1 1 1 1 1 1 1
          1 1 1 1 1 1 1 1 1 1 1 1
          1 1 1 1 1 1 1 1 1 1 1 1
          1 1 1 1 1 1 1 1 1 1 1 1
          1 1 1 1 1 1 1 1 1 1 1 1
          1 1 1 1 1 1 1 1 1 1 1 1
          1 1 1 1 1 1 1 1 1 1 1 1
          1 1 1 1 1 1 1 1 1 1 1 1
          1 1 1 1 1 1 1 1 1 1 1 1
          1 1 1 1 1 1 1 1 1 1 1 1
          1 1 1 1 1 1 1 1 1 1 1 1
          1 1 1 1 1 1 1 1 1 1 1 1
          1 1 1 1 1 1 1 1 1 1 1 1
          1 1 1 1 1 1 1 1 1 1 1 1
          1 1 1 1 1 1 1 1 1 1 1 1
          1 1 1 1 1 1 1 1 1 1 1 1
        </DataArray>
        <DataArray type="Float32" Name="saturation_g" NumberOfComponents="1" format="ascii">
          0 0 0 0 0 0 0 0 0 0 0 0
          0 0 0 0 0 0 0 0 0 0 0 0
          0 0 0 0 0 0 0 0 0 0 0 0
          0 0 0 0 0 0 0 0 0 0 0 0
          0 0 0 0 0 0 0 0 0 0 0 0
          0 0 0 0 0 0 0 0 0 0 0 0
          0 0 0 0 0 0 0 0 0 0 0 0
          0 0 0 0 0 0 0 0 0 0 0 0
          0 0 0 0 0 0 0 0 0 0 0 0
          0 0 0 0 0 0 0 0 0 0 0 0
          0 0 0 0 0 0 0 0 0 0 0 0
          0 0 0 0 0 0 0 0 0 0 0 0
          0 0 0 0 0 0 0 0 0 0 0 0
          0 0 0 0 0 0 0 0 0 0 0 0
          0 0 0 0 0 0 0 0 0 0 0 0
          0 0 0 0 0 0 0 0 0 0 0 0
          0 0 0 0 0 0 0 0 0 0 0 0
          0 0 0 0 0 0 0 0 0 0 0 0
          0 0 0 0 0 0 0 0 0 0 0 0
          0 0 0 0 0 0 0 0 0 0 0 0
          0 0 0 0 0 0 0 0 0 0 0 0
          0 0 0 0 0 0 0 0 0 0 0 0
          0 0 0 0 0 0 0 0 0 0 0 0
          0 0 0 0 0 0 0 0 0 0 0 0
          0 0 0 0 0 0 0 0 0 0 0 0
          0 0 0 0 0 0 0 0 0 0 0 0
          0 0 0 0 0 0 0 0 0 0 0 0
          0 0 0 0 0 0 0 0 0 0 0 0
          0 0 0 0 0 0 0 0 0 0 0 0
          0 0 0 0 0 0 0 0 0 0 0 0
          0 0 0 0 0 0 0 0 0 0 0 0
          0 0 0 0 0 0 0 0 0 0 0 0
        </DataArray>
        <DataArray type="Float32" Name="relativePerm_l" NumberOfComponents="1" format="ascii">
          1 1 1 1 1 1 1 1 1 1 1 1
          1 1 1 1 1 1 1 1 1 1 1 1
          1 1 1 1 1 1 1 1 1 1 1 1
          1 1 1 1 1 1 1 1 1 1 1 1
          1 1 1 1 1 1 1 1 1 1 1 1
          1 1 1 1 1 1 1 1 1 1 1 1
          1 1 1 1 1 1 1 1 1 1 1 1
          1 1 1 1 1 1 1 1 1 1 1 1
          1 1 1 1 1 1 1 1 1 1 1 1
          1 1 1 1 1 1 1 1 1 1 1 1
          1 1 1 1 1 1 1 1 1 1 1 1
          1 1 1 1 1 1 1 1 1 1 1 1
          1 1 1 1 1 1 1 1 1 1 1 1
          1 1 1 1 1 1 1 1 1 1 1 1
          1 1 1 1 1 1 1 1 1 1 1 1
          1 1 1 1 1 1 1 1 1 1 1 1
          1 1 1 1 1 1 1 1 1 1 1 1
          1 1 1 1 1 1 1 1 1 1 1 1
          1 1 1 1 1 1 1 1 1 1 1 1
          1 1 1 1 1 1 1 1 1 1 1 1
          1 1 1 1 1 1 1 1 1 1 1 1
          1 1 1 1 1 1 1 1 1 1 1 1
          1 1 1 1 1 1 1 1 1 1 1 1
          1 1 1 1 1 1 1 1 1 1 1 1
          1 1 1 1 1 1 1 1 1 1 1 1
          1 1 1 1 1 1 1 1 1 1 1 1
          1 1 1 1 1 1 1 1 1 1 1 1
          1 1 1 1 1 1 1 1 1 1 1 1
          1 1 1 1 1 1 1 1 1 1 1 1
          1 1 1 1 1 1 1 1 1 1 1 1
          1 1 1 1 1 1 1 1 1 1 1 1
          1 1 1 1 1 1 1 1 1 1 1 1
        </DataArray>
        <DataArray type="Float32" Name="relativePerm_g" NumberOfComponents="1" format="ascii">
          0 0 0 0 0 0 0 0 0 0 0 0
          0 0 0 0 0 0 0 0 0 0 0 0
          0 0 0 0 0 0 0 0 0 0 0 0
          0 0 0 0 0 0 0 0 0 0 0 0
          0 0 0 0 0 0 0 0 0 0 0 0
          0 0 0 0 0 0 0 0 0 0 0 0
          0 0 0 0 0 0 0 0 0 0 0 0
          0 0 0 0 0 0 0 0 0 0 0 0
          0 0 0 0 0 0 0 0 0 0 0 0
          0 0 0 0 0 0 0 0 0 0 0 0
          0 0 0 0 0 0 0 0 0 0 0 0
          0 0 0 0 0 0 0 0 0 0 0 0
          0 0 0 0 0 0 0 0 0 0 0 0
          0 0 0 0 0 0 0 0 0 0 0 0
          0 0 0 0 0 0 0 0 0 0 0 0
          0 0 0 0 0 0 0 0 0 0 0 0
          0 0 0 0 0 0 0 0 0 0 0 0
          0 0 0 0 0 0 0 0 0 0 0 0
          0 0 0 0 0 0 0 0 0 0 0 0
          0 0 0 0 0 0 0 0 0 0 0 0
          0 0 0 0 0 0 0 0 0 0 0 0
          0 0 0 0 0 0 0 0 0 0 0 0
          0 0 0 0 0 0 0 0 0 0 0 0
          0 0 0 0 0 0 0 0 0 0 0 0
          0 0 0 0 0 0 0 0 0 0 0 0
          0 0 0 0 0 0 0 0 0 0 0 0
          0 0 0 0 0 0 0 0 0 0 0 0
          0 0 0 0 0 0 0 0 0 0 0 0
          0 0 0 0 0 0 0 0 0 0 0 0
          0 0 0 0 0 0 0 0 0 0 0 0
          0 0 0 0 0 0 0 0 0 0 0 0
          0 0 0 0 0 0 0 0 0 0 0 0
        </DataArray>
        <DataArray type="Float32" Name="porosity" NumberOfComponents="1" format="ascii">
          0.3 0.3 0.3 0.3 0.3 0.3 0.3 0.3 0.3 0.3 0.3 0.3
          0.3 0.3 0.3 0.3 0.3 0.3 0.3 0.3 0.3 0.3 0.3 0.3
          0.3 0.3 0.3 0.3 0.3 0.3 0.3 0.3 0.3 0.3 0.3 0.3
          0.3 0.3 0.3 0.3 0.3 0.3 0.3 0.3 0.3 0.3 0.3 0.3
          0.3 0.3 0.3 0.3 0.3 0.3 0.3 0.3 0.3 0.3 0.3 0.3
          0.3 0.3 0.3 0.3 0.3 0.3 0.3 0.3 0.3 0.3 0.3 0.3
          0.3 0.3 0.3 0.3 0.3 0.3 0.3 0.3 0.3 0.3 0.3 0.3
          0.3 0.3 0.3 0.3 0.3 0.3 0.3 0.3 0.3 0.3 0.3 0.3
          0.3 0.3 0.3 0.3 0.3 0.3 0.3 0.3 0.3 0.3 0.3 0.3
          0.3 0.3 0.3 0.3 0.3 0.3 0.3 0.3 0.3 0.3 0.3 0.3
          0.3 0.3 0.3 0.3 0.3 0.3 0.3 0.3 0.3 0.3 0.3 0.3
          0.3 0.3 0.3 0.3 0.3 0.3 0.3 0.3 0.3 0.3 0.3 0.3
          0.3 0.3 0.3 0.3 0.3 0.3 0.3 0.3 0.3 0.3 0.3 0.3
          0.3 0.3 0.3 0.3 0.3 0.3 0.3 0.3 0.3 0.3 0.3 0.3
          0.3 0.3 0.3 0.3 0.3 0.3 0.3 0.3 0.3 0.3 0.3 0.3
          0.3 0.3 0.3 0.3 0.3 0.3 0.3 0.3 0.3 0.3 0.3 0.3
          0.3 0.3 0.3 0.3 0.3 0.3 0.3 0.3 0.3 0.3 0.3 0.3
          0.3 0.3 0.3 0.3 0.3 0.3 0.3 0.3 0.3 0.3 0.3 0.3
          0.3 0.3 0.3 0.3 0.3 0.3 0.3 0.3 0.3 0.3 0.3 0.3
          0.3 0.3 0.3 0.3 0.3 0.3 0.3 0.3 0.3 0.3 0.3 0.3
          0.3 0.3 0.3 0.3 0.3 0.3 0.3 0.3 0.3 0.3 0.3 0.3
          0.3 0.3 0.3 0.3 0.3 0.3 0.3 0.3 0.3 0.3 0.3 0.3
          0.3 0.3 0.3 0.3 0.3 0.3 0.3 0.3 0.3 0.3 0.3 0.3
          0.3 0.3 0.3 0.3 0.3 0.3 0.3 0.3 0.3 0.3 0.3 0.3
          0.3 0.3 0.3 0.3 0.3 0.3 0.3 0.3 0.3 0.3 0.3 0.3
          0.3 0.3 0.3 0.3 0.3 0.3 0.3 0.3 0.3 0.3 0.3 0.3
          0.3 0.3 0.3 0.3 0.3 0.3 0.3 0.3 0.3 0.3 0.3 0.3
          0.3 0.3 0.3 0.3 0.3 0.3 0.3 0.3 0.3 0.3 0.3 0.3
          0.3 0.3 0.3 0.3 0.3 0.3 0.3 0.3 0.3 0.3 0.3 0.3
          0.3 0.3 0.3 0.3 0.3 0.3 0.3 0.3 0.3 0.3 0.3 0.3
          0.3 0.3 0.3 0.3 0.3 0.3 0.3 0.3 0.3 0.3 0.3 0.3
          0.3 0.3 0.3 0.3 0.3 0.3 0.3 0.3 0.3 0.3 0.3 0.3
        </DataArray>
        <DataArray type="Float32" Name="temperature" NumberOfComponents="1" format="ascii">
          293.15 293.15 293.15 293.15 293.15 293.15 293.15 293.15 293.15 293.15 293.15 293.15
          293.15 293.15 293.15 293.15 293.15 293.15 293.15 293.15 293.15 293.15 293.15 293.15
          293.15 293.15 293.15 293.15 293.15 293.15 293.15 293.15 293.233 293.233 293.233 293.233
          293.15 293.15 293.15 293.15 293.15 293.15 293.15 293.15 293.15 293.15 293.15 293.151
          293.15 293.15 293.15 293.15 293.15 293.15 293.15 293.233 392.855 392.971 392.942 392.453
          293.233 293.15 293.15 293.15 293.15 293.15 293.15 293.15 293.15 293.15 293.151 293.653
          293.15 293.15 293.15 293.15 293.15 293.15 293.15 293.288 393.064 393.15 393.149 392.81
          293.233 293.15 293.15 293.15 293.15 293.15 293.15 293.15 293.15 293.15 293.151 293.653
          293.15 293.15 293.15 293.15 293.15 293.15 293.15 293.348 393.066 393.15 393.15 392.865
          293.233 293.15 293.15 293.15 293.15 293.15 293.15 293.15 293.15 293.15 293.151 293.653
          293.15 293.15 293.15 293.15 293.15 293.15 293.15 293.386 393.066 393.15 393.15 392.907
          293.233 293.15 293.15 293.15 293.15 293.15 293.15 293.15 293.15 293.15 293.151 293.653
          293.15 293.15 293.15 293.15 293.15 293.15 293.151 293.425 393.066 393.15 393.15 392.95
          293.233 293.15 293.15 293.15 293.15 293.15 293.15 293.15 293.15 293.15 293.15 293.151
          293.15 293.15 293.15 293.15 293.15 293.15 293.151 293.486 393.066 393.15 393.15 393.003
          293.233 293.15 293.15 293.15 293.15 293.15 293.15 293.15 293.15 293.15 293.15 293.15
          293.15 293.15 293.15 293.15 293.15 293.15 293.151 293.641 393.066 393.15 393.15 393.065
          293.295 293.15 293.15 293.15 293.15 293.15 293.15 293.15 293.15 293.15 293.15 293.15
          293.15 293.15 293.15 293.15 293.15 293.15 293.15 293.275 393.066 393.15 393.15 393.066
          293.242 293.15 293.15 293.15 293.15 293.15 293.15 293.15 293.15 293.15 293.15 293.15
          293.15 293.15 293.15 293.15 293.15 293.15 293.15 293.262 393.066 393.15 393.15 393.064
          293.234 293.15 293.15 293.15 293.15 293.15 293.15 293.15 293.15 293.15 293.15 293.15
          293.15 293.15 293.15 293.15 293.15 293.15 293.15 293.26 393.066 393.15 393.15 393.064
          293.234 293.15 293.15 293.15 293.15 293.15 293.15 293.15 293.15 293.15 293.15 293.15
          293.15 293.15 293.15 293.15 293.15 293.15 293.15 293.263 393.066 393.15 393.15 393.065
          293.234 293.15 293.15 293.15 293.15 293.15 293.15 293.15 293.15 293.15 293.15 293.15
          293.15 293.15 293.15 293.15 293.15 293.15 293.15 293.278 392.981 393.066 393.066 392.981
          293.246 293.15 293.15 293.15 293.15 293.15 293.15 293.15 293.15 293.15 293.15 293.15
          293.15 293.15 293.15 293.15 293.15 293.15 293.15 293.15 293.253 293.246 293.244 293.246
          293.15 293.15 293.15 293.15 293.15 293.15 293.15 293.15 293.15 293.15 293.15 293.15
          293.15 293.15 293.15 293.15 293.15 293.15 293.15 293.15 293.15 293.15 293.15 293.15
          293.15 293.15 293.15 293.15 293.15 293.15 293.15 293.15 293.15 293.15 293.15 293.15
        </DataArray>
        <DataArray type="Float32" Name="moleFrac_l^Brine" NumberOfComponents="1" format="ascii">
          0.995 0.995 0.995 0.995 0.995 0.995 0.995 0.995 0.995 0.995 0.995 0.995
          0.995 0.995 0.995 0.995 0.995 0.995 0.995 0.995 0.995 0.995 0.995 0.995
          0.995 0.995 0.995 0.995 0.995 0.995 0.995 0.995 0.995 0.995 0.995 0.995
          0.995 0.995 0.995 0.995 0.995 0.995 0.995 0.995 0.995 0.995 0.995 0.994981
          0.995 0.995 0.995 0.995 0.995 0.995 0.995 0.995 0.995 0.995 0.995 0.995
          0.995 0.995 0.995 0.995 0.995 0.995 0.995 0.995 0.995 0.995 0.994978 0.989583
          0.995 0.995 0.995 0.995 0.995 0.995 0.995 0.995 0.995 0.995 0.995 0.995
          0.995 0.995 0.995 0.995 0.995 0.995 0.995 0.995 0.995 0.995 0.994975 0.989583
          0.995 0.995 0.995 0.995 0.995 0.995 0.995 0.995 0.995 0.995 0.995 0.995
          0.995 0.995 0.995 0.995 0.995 0.995 0.995 0.995 0.995 0.995 0.994975 0.989583
          0.995 0.995 0.995 0.995 0.995 0.995 0.995 0.995 0.995 0.995 0.995 0.995
          0.995 0.995 0.995 0.995 0.995 0.995 0.995 0.995 0.995 0.995 0.994979 0.989583
          0.995 0.995 0.995 0.995 0.995 0.995 0.995 0.995 0.995 0.995 0.995 0.995
          0.995 0.995 0.995 0.995 0.995 0.995 0.995 0.995 0.995 0.995 0.995 0.994979
          0.995 0.995 0.995 0.995 0.995 0.995 0.995 0.995 0.995 0.995 0.995 0.995
          0.995 0.995 0.995 0.995 0.995 0.995 0.995 0.995 0.995 0.995 0.995 0.995
          0.995 0.995 0.995 0.995 0.995 0.995 0.995 0.995 0.995 0.995 0.995 0.995
          0.995 0.995 0.995 0.995 0.995 0.995 0.995 0.995 0.995 0.995 0.995 0.995
          0.995 0.995 0.995 0.995 0.995 0.995 0.995 0.995 0.995 0.995 0.995 0.995
          0.995 0.995 0.995 0.995 0.995 0.995 0.995 0.995 0.995 0.995 0.995 0.995
          0.995 0.995 0.995 0.995 0.995 0.995 0.995 0.995 0.995 0.995 0.995 0.995
          0.995 0.995 0.995 0.995 0.995 0.995 0.995 0.995 0.995 0.995 0.995 0.995
          0.995 0.995 0.995 0.995 0.995 0.995 0.995 0.995 0.995 0.995 0.995 0.995
          0.995 0.995 0.995 0.995 0.995 0.995 0.995 0.995 0.995 0.995 0.995 0.995
          0.995 0.995 0.995 0.995 0.995 0.995 0.995 0.995 0.995 0.995 0.995 0.995
          0.995 0.995 0.995 0.995 0.995 0.995 0.995 0.995 0.995 0.995 0.995 0.995
          0.995 0.995 0.995 0.995 0.995 0.995 0.995 0.995 0.995 0.995 0.995 0.995
          0.995 0.995 0.995 0.995 0.995 0.995 0.995 0.995 0.995 0.995 0.995 0.995
          0.995 0.995 0.995 0.995 0.995 0.995 0.995 0.995 0.995 0.995 0.995 0.995
          0.995 0.995 0.995 0.995 0.995 0.995 0.995 0.995 0.995 0.995 0.995 0.995
          0.995 0.995 0.995 0.995 0.995 0.995 0.995 0.995 0.995 0.995 0.995 0.995
          0.995 0.995 0.995 0.995 0.995 0.995 0.995 0.995 0.995 0.995 0.995 0.995
        </DataArray>
        <DataArray type="Float32" Name="moleFrac_l^CO2" NumberOfComponents="1" format="ascii">