<?xml version="1.0"?>
<VTKFile type="UnstructuredGrid" version="0.1" byte_order="LittleEndian">
  <UnstructuredGrid>
    <Piece NumberOfCells="384" NumberOfPoints="425">
      <CellData Scalars="pressure_l">
        <DataArray type="Float32" Name="pressure_l" NumberOfComponents="1" format="ascii">
          2.63099e+07 2.63112e+07 2.63124e+07 2.63135e+07 2.63146e+07 2.63154e+07 2.63162e+07 2.63167e+07 2.63171e+07 2.63177e+07 2.63185e+07 2.63197e+07
          2.63213e+07 2.63229e+07 2.63246e+07 2.63262e+07 2.63277e+07 2.63292e+07 2.63307e+07 2.63321e+07 2.63335e+07 2.63348e+07 2.63359e+07 2.63366e+07
          2.62835e+07 2.62848e+07 2.6286e+07 2.62872e+07 2.62882e+07 2.62891e+07 2.62898e+07 2.62903e+07 2.62905e+07 2.62909e+07 2.62917e+07 2.62928e+07
          2.62947e+07 2.62965e+07 2.62981e+07 2.62997e+07 2.63013e+07 2.63028e+07 2.63042e+07 2.63057e+07 2.63071e+07 2.63085e+07 2.63098e+07 2.63108e+07
          2.62573e+07 2.62585e+07 2.62597e+07 2.62609e+07 2.6262e+07 2.62629e+07 2.62637e+07 2.62643e+07 2.62644e+07 2.62647e+07 2.62652e+07 2.62658e+07
          2.62682e+07 2.62701e+07 2.62718e+07 2.62734e+07 2.62749e+07 2.62763e+07 2.62778e+07 2.62792e+07 2.62807e+07 2.62823e+07 2.62839e+07 2.62861e+07
          2.6231e+07 2.62323e+07 2.62335e+07 2.62347e+07 2.62358e+07 2.62369e+07 2.62379e+07 2.62388e+07 2.6239e+07 2.62394e+07 2.62399e+07 2.62404e+07
          2.62423e+07 2.6244e+07 2.62455e+07 2.6247e+07 2.62485e+07 2.62499e+07 2.62513e+07 2.62528e+07 2.62543e+07 2.62559e+07 2.62578e+07 2.62603e+07
          2.62048e+07 2.6206e+07 2.62073e+07 2.62085e+07 2.62097e+07 2.62109e+07 2.62121e+07 2.62133e+07 2.62136e+07 2.6214e+07 2.62145e+07 2.62149e+07
          2.62165e+07 2.6218e+07 2.62194e+07 2.62208e+07 2.62221e+07 2.62235e+07 2.62249e+07 2.62263e+07 2.62278e+07 2.62293e+07 2.62312e+07 2.62337e+07
          2.61786e+07 2.61798e+07 2.61811e+07 2.61824e+07 2.61837e+07 2.6185e+07 2.61864e+07 2.61877e+07 2.61882e+07 2.61886e+07 2.6189e+07 2.61894e+07
          2.61907e+07 2.6192e+07 2.61933e+07 2.61945e+07 2.61958e+07 2.61971e+07 2.61984e+07 2.61997e+07 2.62011e+07 2.62025e+07 2.62041e+07 2.62062e+07
          2.61523e+07 2.61536e+07 2.61549e+07 2.61562e+07 2.61576e+07 2.61591e+07 2.61606e+07 2.61622e+07 2.61627e+07 2.61632e+07 2.61636e+07 2.6164e+07
          2.6165e+07 2.6166e+07 2.61671e+07 2.61683e+07 2.61694e+07 2.61707e+07 2.61719e+07 2.61731e+07 2.61743e+07 2.61755e+07 2.61767e+07 2.61776e+07
          2.61261e+07 2.61273e+07 2.61286e+07 2.613e+07 2.61315e+07 2.6133e+07 2.61348e+07 2.61366e+07 2.61373e+07 2.61378e+07 2.61382e+07 2.61386e+07
          2.61392e+07 2.614e+07 2.6141e+07 2.6142e+07 2.61431e+07 2.61442e+07 2.61453e+07 2.61465e+07 2.61476e+07 2.61486e+07 2.61495e+07 2.615e+07
          2.60997e+07 2.6101e+07 2.61023e+07 2.61037e+07 2.61052e+07 2.61069e+07 2.61087e+07 2.6111e+07 2.61119e+07 2.61125e+07 2.6113e+07 2.61132e+07
          2.61133e+07 2.61139e+07 2.61147e+07 2.61156e+07 2.61167e+07 2.61177e+07 2.61188e+07 2.61199e+07 2.61209e+07 2.61218e+07 2.61226e+07 2.6123e+07
          2.60736e+07 2.60748e+07 2.60762e+07 2.60776e+07 2.60792e+07 2.6081e+07 2.6083e+07 2.60853e+07 2.60862e+07 2.60869e+07 2.60873e+07 2.60876e+07
          2.60875e+07 2.6088e+07 2.60886e+07 2.60894e+07 2.60904e+07 2.60913e+07 2.60923e+07 2.60932e+07 2.60941e+07 2.60949e+07 2.60955e+07 2.60958e+07
          2.60475e+07 2.60489e+07 2.60503e+07 2.60518e+07 2.60535e+07 2.60553e+07 2.60574e+07 2.60596e+07 2.60603e+07 2.60609e+07 2.60613e+07 2.60616e+07
          2.60618e+07 2.60622e+07 2.60628e+07 2.60634e+07 2.60641e+07 2.60649e+07 2.60657e+07 2.60665e+07 2.60672e+07 2.60678e+07 2.60682e+07 2.60685e+07
          2.60214e+07 2.60228e+07 2.60243e+07 2.60259e+07 2.60276e+07 2.60295e+07 2.60316e+07 2.60337e+07 2.60344e+07 2.6035e+07 2.60354e+07 2.60357e+07
          2.6036e+07 2.60364e+07 2.60368e+07 2.60373e+07 2.60379e+07 2.60385e+07 2.60392e+07 2.60398e+07 2.60403e+07 2.60408e+07 2.60411e+07 2.60413e+07
          2.59952e+07 2.59967e+07 2.59982e+07 2.59999e+07 2.60016e+07 2.60035e+07 2.60056e+07 2.60079e+07 2.60087e+07 2.60093e+07 2.60098e+07 2.601e+07
          2.60102e+07 2.60104e+07 2.60107e+07 2.60111e+07 2.60116e+07 2.60121e+07 2.60126e+07 2.60131e+07 2.60136e+07 2.6014e+07 2.60142e+07 2.60144e+07
          2.5969e+07 2.59705e+07 2.5972e+07 2.59737e+07 2.59755e+07 2.59774e+07 2.59795e+07 2.59819e+07 2.5983e+07 2.59838e+07 2.59843e+07 2.59845e+07
          2.59844e+07 2.59844e+07 2.59846e+07 2.59849e+07 2.59852e+07 2.59857e+07 2.59861e+07 2.59865e+07 2.59869e+07 2.59872e+07 2.59875e+07 2.59876e+07
          2.59427e+07 2.59442e+07 2.59457e+07 2.59474e+07 2.59492e+07 2.5951e+07 2.5953e+07 2.5955e+07 2.59569e+07 2.59578e+07 2.59584e+07 2.59586e+07
          2.59582e+07 2.59582e+07 2.59583e+07 2.59585e+07 2.59588e+07 2.59592e+07 2.59596e+07 2.596e+07 2.59603e+07 2.59606e+07 2.59608e+07 2.59609e+07
          2.59164e+07 2.59178e+07 2.59194e+07 2.5921e+07 2.59228e+07 2.59246e+07 2.59265e+07 2.59283e+07 2.59299e+07 2.59309e+07 2.59315e+07 2.59318e+07
          2.59318e+07 2.59318e+07 2.59319e+07 2.59321e+07 2.59324e+07 2.59327e+07 2.59331e+07 2.59334e+07 2.59338e+07 2.5934e+07 2.59342e+07 2.59343e+07
        </DataArray>
        <DataArray type="Float32" Name="pressure_g" NumberOfComponents="1" format="ascii">
          2.63149e+07 2.63162e+07 2.63174e+07 2.63185e+07 2.63196e+07 2.63204e+07 2.63212e+07 2.63217e+07 2.63221e+07 2.63227e+07 2.63235e+07 2.63247e+07
          2.63263e+07 2.63279e+07 2.63296e+07 2.63312e+07 2.63327e+07 2.63342e+07 2.63357e+07 2.63371e+07 2.63385e+07 2.63398e+07 2.63409e+07 2.63416e+07
          2.62885e+07 2.62898e+07 2.6291e+07 2.62922e+07 2.62932e+07 2.62941e+07 2.62948e+07 2.62953e+07 2.62955e+07 2.62959e+07 2.62967e+07 2.62978e+07
          2.62997e+07 2.63015e+07 2.63031e+07 2.63047e+07 2.63063e+07 2.63078e+07 2.63092e+07 2.63107e+07 2.63121e+07 2.63135e+07 2.63148e+07 2.63158e+07
          2.62623e+07 2.62635e+07 2.62647e+07 2.62659e+07 2.6267e+07 2.62679e+07 2.62687e+07 2.62693e+07 2.62694e+07 2.62697e+07 2.62702e+07 2.62708e+07
          2.62732e+07 2.62751e+07 2.62768e+07 2.62784e+07 2.62799e+07 2.62813e+07 2.62828e+07 2.62842e+07 2.62857e+07 2.62873e+07 2.62889e+07 2.62911e+07
          2.6236e+07 2.62373e+07 2.62385e+07 2.62397e+07 2.62408e+07 2.62419e+07 2.62429e+07 2.62438e+07 2.6244e+07 2.62444e+07 2.62449e+07 2.62454e+07
          2.62473e+07 2.6249e+07 2.62505e+07 2.6252e+07 2.62535e+07 2.62549e+07 2.62563e+07 2.62578e+07 2.62593e+07 2.62609e+07 2.62628e+07 2.62653e+07
          2.62098e+07 2.6211e+07 2.62123e+07 2.62135e+07 2.62147e+07 2.62159e+07 2.62171e+07 2.62183e+07 2.62186e+07 2.6219e+07 2.62195e+07 2.62199e+07
          2.62215e+07 2.6223e+07 2.62244e+07 2.62258e+07 2.62271e+07 2.62285e+07 2.62299e+07 2.62313e+07 2.62328e+07 2.62343e+07 2.62362e+07 2.62387e+07
          2.61836e+07 2.61848e+07 2.61861e+07 2.61874e+07 2.61887e+07 2.619e+07 2.61914e+07 2.61927e+07 2.61932e+07 2.61936e+07 2.6194e+07 2.61944e+07
          2.61957e+07 2.6197e+07 2.61983e+07 2.61995e+07 2.62008e+07 2.62021e+07 2.62034e+07 2.62047e+07 2.62061e+07 2.62075e+07 2.62091e+07 2.62113e+07
          2.61573e+07 2.61586e+07 2.61599e+07 2.61612e+07 2.61626e+07 2.61641e+07 2.61656e+07 2.61672e+07 2.61677e+07 2.61682e+07 2.61686e+07 2.6169e+07
          2.617e+07 2.6171e+07 2.61721e+07 2.61733e+07 2.61744e+07 2.61757e+07 2.61769e+07 2.61781e+07 2.61793e+07 2.61805e+07 2.61817e+07 2.61826e+07
          2.61311e+07 2.61323e+07 2.61336e+07 2.6135e+07 2.61365e+07 2.6138e+07 2.61398e+07 2.61416e+07 2.61423e+07 2.61428e+07 2.61432e+07 2.61436e+07
          2.61442e+07 2.6145e+07 2.6146e+07 2.6147e+07 2.61481e+07 2.61492e+07 2.61503e+07 2.61515e+07 2.61526e+07 2.61536e+07 2.61545e+07 2.6155e+07
          2.61047e+07 2.6106e+07 2.61073e+07 2.61087e+07 2.61102e+07 2.61119e+07 2.61137e+07 2.6116e+07 2.61169e+07 2.61175e+07 2.6118e+07 2.61182e+07
          2.61183e+07 2.61189e+07 2.61197e+07 2.61206e+07 2.61217e+07 2.61227e+07 2.61238e+07 2.61249e+07 2.61259e+07 2.61268e+07 2.61276e+07 2.6128e+07
          2.60836e+07 2.60848e+07 2.60862e+07 2.60876e+07 2.60892e+07 2.6091e+07 2.6093e+07 2.60953e+07 2.60962e+07 2.60969e+07 2.60973e+07 2.60976e+07
          2.60975e+07 2.6098e+07 2.60986e+07 2.60994e+07 2.61004e+07 2.61013e+07 2.61023e+07 2.61032e+07 2.61041e+07 2.61049e+07 2.61055e+07 2.61058e+07
          2.60575e+07 2.60589e+07 2.60603e+07 2.60618e+07 2.60635e+07 2.60653e+07 2.60674e+07 2.60696e+07 2.60703e+07 2.60709e+07 2.60713e+07 2.60716e+07
          2.60718e+07 2.60722e+07 2.60728e+07 2.60734e+07 2.60741e+07 2.60749e+07 2.60757e+07 2.60765e+07 2.60772e+07 2.60778e+07 2.60782e+07 2.60785e+07
          2.60314e+07 2.60328e+07 2.60343e+07 2.60359e+07 2.60376e+07 2.60395e+07 2.60416e+07 2.60437e+07 2.60444e+07 2.6045e+07 2.60454e+07 2.60457e+07
          2.6046e+07 2.60464e+07 2.60468e+07 2.60473e+07 2.60479e+07 2.60485e+07 2.60492e+07 2.60498e+07 2.60503e+07 2.60508e+07 2.60511e+07 2.60513e+07
          2.60052e+07 2.60067e+07 2.60082e+07 2.60099e+07 2.60116e+07 2.60135e+07 2.60156e+07 2.60179e+07 2.60187e+07 2.60193e+07 2.60198e+07 2.602e+07
          2.60202e+07 2.60204e+07 2.60207e+07 2.60211e+07 2.60216e+07 2.60221e+07 2.60226e+07 2.60231e+07 2.60236e+07 2.6024e+07 2.60242e+07 2.60244e+07
          2.5979e+07 2.59805e+07 2.5982e+07 2.59837e+07 2.59855e+07 2.59874e+07 2.59895e+07 2.59919e+07 2.5993e+07 2.59938e+07 2.59943e+07 2.59945e+07
          2.59944e+07 2.59944e+07 2.59946e+07 2.59949e+07 2.59952e+07 2.59957e+07 2.59961e+07 2.59965e+07 2.59969e+07 2.59972e+07 2.59975e+07 2.59976e+07
          2.59527e+07 2.59542e+07 2.59557e+07 2.59574e+07 2.59592e+07 2.5961e+07 2.5963e+07 2.5965e+07 2.59669e+07 2.59678e+07 2.59684e+07 2.59686e+07
          2.59682e+07 2.59682e+07 2.59683e+07 2.59685e+07 2.59688e+07 2.59692e+07 2.59696e+07 2.597e+07 2.59703e+07 2.59706e+07 2.59708e+07 2.59709e+07
          2.59264e+07 2.59278e+07 2.59294e+07 2.5931e+07 2.59328e+07 2.59346e+07 2.59365e+07 2.59383e+07 2.59399e+07 2.59409e+07 2.59415e+07 2.59418e+07
          2.59418e+07 2.59418e+07 2.59419e+07 2.59421e+07 2.59424e+07 2.59427e+07 2.59431e+07 2.59434e+07 2.59438e+07 2.5944e+07 2.59442e+07 2.59443e+07
        </DataArray>
        <DataArray type="Float32" Name="density_l" NumberOfComponents="1" format="ascii">
          1080.19 1080.19 1080.19 1080.19 1080.19 1080.19 1080.19 1080.19 1080.19 1080.19 1080.19 1080.19
          1080.19 1080.19 1080.19 1080.19 1080.19 1080.19 1080.19 1080.19 1080.2 1080.2 1080.2 1080.2
          1080.17 1080.18 1080.18 1080.18 1080.18 1080.18 1080.18 1080.18 1080.18 1080.18 1080.18 1080.18
          1080.18 1080.18 1080.18 1080.18 1080.18 1080.18 1080.18 1080.18 1080.18 1080.19 1080.19 1080.19
          1080.16 1080.16 1080.16 1080.17 1080.17 1080.17 1080.17 1080.17 1017.06 1017.06 1017.06 1017.06
          1080.17 1080.17 1080.17 1080.17 1080.17 1080.17 1080.17 1080.17 1080.17 1080.17 1080.17 1080.18
          1080.15 1080.15 1080.15 1080.15 1080.15 1080.15 1080.16 1080.16 1017.05 1017.05 1017.05 1017.05
          1080.16 1080.16 1080.16 1080.16 1080.16 1080.16 1080.16 1080.16 1080.16 1080.16 1080.16 1080.16
          1080.14 1080.14 1080.14 1080.14 1080.14 1080.14 1080.14 1080.15 1017.04 1017.04 1017.04 1017.04
          1080.15 1080.15 1080.15 1080.15 1080.15 1080.15 1080.15 1080.15 1080.15 1080.15 1080.15 1080.15
          1080.13 1080.13 1080.13 1080.13 1080.13 1080.13 1080.13 1080.13 1017.03 1017.03 1017.03 1017.03
          1080.14 1080.14 1080.14 1080.14 1080.14 1080.14 1080.14 1080.14 1080.14 1080.14 1080.14 1080.14
          1080.12 1080.12 1080.12 1080.12 1080.12 1080.12 1080.12 1080.12 1017.02 1017.02 1017.02 1017.02
          1080.12 1080.13 1080.13 1080.13 1080.13 1080.13 1080.13 1080.13 1080.13 1080.13 1080.13 1080.13
          1080.11 1080.11 1080.11 1080.11 1080.11 1080.11 1080.11 1080.11 1017.01 1017.01 1017.01 1017.01
          1080.11 1080.11 1080.11 1080.12 1080.12 1080.12 1080.12 1080.12 1080.12 1080.12 1080.12 1080.12
          1080.1 1080.1 1080.1 1080.1 1080.1 1080.1 1080.1 1080.1 1017.01 1017.01 1017.01 1017.01
          1080.1 1080.1 1080.1 1080.1 1080.1 1080.1 1080.11 1080.11 1080.11 1080.11 1080.11 1080.11
          1080.09 1080.09 1080.09 1080.09 1080.09 1080.09 1080.09 1080.09 1017 1017 1017 1017
          1080.09 1080.09 1080.09 1080.09 1080.09 1080.09 1080.09 1080.09 1080.09 1080.1 1080.1 1080.1
          1080.08 1080.08 1080.08 1080.08 1080.08 1080.08 1080.08 1080.08 1016.99 1016.99 1016.99 1016.99
          1080.08 1080.08 1080.08 1080.08 1080.08 1080.08 1080.08 1080.08 1080.08 1080.08 1080.08 1080.08
          1080.06 1080.07 1080.07 1080.07 1080.07 1080.07 1080.07 1080.07 1016.98 1016.98 1016.98 1016.98
          1080.07 1080.07 1080.07 1080.07 1080.07 1080.07 1080.07 1080.07 1080.07 1080.07 1080.07 1080.07
          1080.05 1080.05 1080.05 1080.06 1080.06 1080.06 1080.06 1080.06 1016.97 1016.97 1016.97 1016.97
          1080.06 1080.06 1080.06 1080.06 1080.06 1080.06 1080.06 1080.06 1080.06 1080.06 1080.06 1080.06
          1080.04 1080.04 1080.04 1080.04 1080.05 1080.05 1080.05 1080.05 1016.96 1016.96 1016.96 1016.96
          1080.05 1080.05 1080.05 1080.05 1080.05 1080.05 1080.05 1080.05 1080.05 1080.05 1080.05 1080.05
          1080.03 1080.03 1080.03 1080.03 1080.03 1080.03 1080.04 1080.04 1080.04 1080.04 1080.04 1080.04
          1080.04 1080.04 1080.04 1080.04 1080.04 1080.04 1080.04 1080.04 1080.04 1080.04 1080.04 1080.04
          1080.02 1080.02 1080.02 1080.02 1080.02 1080.02 1080.02 1080.03 1080.03 1080.03 1080.03 1080.03
          1080.03 1080.03 1080.03 1080.03 1080.03 1080.03 1080.03 1080.03 1080.03 1080.03 1080.03 1080.03
        </DataArray>
        <DataArray type="Float32" Name="density_g" NumberOfComponents="1" format="ascii">
          969.089 969.095 969.1 969.105 969.11 969.114 969.117 969.12 969.122 969.124 969.128 969.133
          969.14 969.148 969.155 969.162 969.169 969.176 969.182 969.189 969.195 969.201 969.206 969.209
          968.97 968.976 968.981 968.986 968.991 968.995 968.998 969.001 969.001 969.003 969.007 969.012
          969.02 969.028 969.036 969.043 969.05 969.057 969.063 969.07 969.076 969.082 969.088 969.093
          968.852 968.857 968.863 968.868 968.873 968.877 968.881 968.883 528.013 528.019 528.027 528.038
          968.901 968.909 968.917 968.924 968.931 968.937 968.944 968.951 968.957 968.964 968.972 968.982
          968.733 968.739 968.744 968.75 968.755 968.76 968.764 968.768 527.58 527.586 527.594 527.603
          968.784 968.792 968.799 968.805 968.812 968.818 968.825 968.831 968.838 968.845 968.854 968.865
          968.615 968.62 968.626 968.632 968.637 968.643 968.648 968.653 527.146 527.152 527.16 527.168
          968.667 968.674 968.681 968.687 968.693 968.699 968.705 968.712 968.718 968.726 968.734 968.745
          968.496 968.502 968.508 968.514 968.52 968.526 968.532 968.538 526.71 526.718 526.725 526.732
          968.551 968.557 968.563 968.568 968.574 968.58 968.586 968.592 968.598 968.605 968.612 968.621
          968.378 968.384 968.39 968.396 968.402 968.409 968.415 968.423 526.275 526.283 526.291 526.297
          968.435 968.44 968.445 968.45 968.455 968.461 968.466 968.472 968.477 968.483 968.488 968.492
          968.26 968.265 968.271 968.277 968.284 968.291 968.299 968.307 525.84 525.85 525.857 525.862
          968.319 968.323 968.327 968.331 968.336 968.341 968.347 968.352 968.357 968.361 968.365 968.368
          968.14 968.146 968.152 968.158 968.165 968.173 968.181 968.191 525.405 525.416 525.424 525.428
          968.202 968.205 968.208 968.212 968.217 968.222 968.227 968.232 968.237 968.241 968.244 968.246
          968.044 968.05 968.056 968.063 968.07 968.078 968.087 968.097 525.048 525.059 525.067 525.071
          968.108 968.109 968.113 968.116 968.12 968.125 968.129 968.133 968.138 968.141 968.144 968.145
          967.926 967.932 967.938 967.945 967.953 967.961 967.971 967.981 524.599 524.609 524.617 524.621
          967.991 967.993 967.995 967.998 968.001 968.005 968.008 968.012 968.015 968.018 968.02 968.021
          967.807 967.814 967.82 967.828 967.836 967.844 967.853 967.863 524.152 524.162 524.17 524.174
          967.874 967.875 967.877 967.879 967.882 967.885 967.888 967.891 967.893 967.895 967.897 967.898
          967.688 967.695 967.702 967.709 967.717 967.726 967.736 967.746 523.706 523.718 523.726 523.73
          967.756 967.757 967.759 967.761 967.763 967.765 967.767 967.77 967.772 967.773 967.775 967.775
          967.569 967.576 967.583 967.591 967.599 967.607 967.617 967.628 523.263 523.277 523.285 523.289
          967.639 967.639 967.64 967.641 967.643 967.645 967.647 967.649 967.651 967.652 967.653 967.654
          967.45 967.457 967.464 967.471 967.479 967.488 967.497 967.506 967.514 967.519 967.521 967.522
          967.52 967.52 967.521 967.522 967.523 967.525 967.527 967.528 967.53 967.531 967.532 967.532
          967.33 967.337 967.344 967.351 967.359 967.368 967.376 967.384 967.392 967.396 967.399 967.4
          967.4 967.4 967.401 967.402 967.403 967.405 967.406 967.408 967.409 967.41 967.411 967.412
        </DataArray>
        <DataArray type="Float32" Name="saturation_l" NumberOfComponents="1" format="ascii">
          1 1 1 1 1 1 1 1 1 1 1 1
          1 1 1 1 1 1 1 1 1 1 1 1
          1 1 1 1 1 1 1 1 1 1 1 1
          1 1 1 1 1 1 1 1 1 1 1 1
          1 1 1 1 1 1 1 1 1 1 1 1
          1 1 1 1 1 1 1 1 1 1 1 0.986241
          1 1 1 1 1 1 1 1 1 1 1 1
          1 1 1 1 1 1 1 1 1 1 1 0.986239
          1 1 1 1 1 1 1 1 1 1 1 1
          1 1 1 1 1 1 1 1 1 1 1 0.986237
          1 1 1 1 1 1 1 1 1 1 1 1
          1 1 1 1 1 1 1 1 1 1 1 0.986235
          1 1 1 1 1 1 1 1 1 1 1 1
          1 1 1 1 1 1 1 1 1 1 1 0.999999
          1 1 1 1 1 1 1 1 1 1 1 1
          1 1 1 1 1 1 1 1 1 1 1 1
          1 1 1 1 1 1 1 1 1 1 1 1
          1 1 1 1 1 1 1 1 1 1 1 1
          1 1 1 1 1 1 1 1 1 1 1 1
          1 1 1 1 1 1 1 1 1 1 1 1
          1 1 1 1 1 1 1 1 1 1 1 1
          1 1 1 1 1 1 1 1 1 1 1 1
          1 1 1 1 1 1 1 1 1 1 1 1
          1 1 1 1 1 1 1 1 1 1 1 1
          1 1 1 1 1 1 1 1 1 1 1 1
          1 1 1 1 1 1 1 1 1 1 1 1
          1 1 1 1 1 1 1 1 1 1 1 1
          1 1 1 1 1 1 1 1 1 1 1 1
          1 1 1 1 1 1 1 1 1 1 1 1
          1 1 1 1 1 1 1 1 1 1 1 1
          1 1 1 1 1 1 1 1 1 1 1 1
          1 1 1 1 1 1 1 1 1 1 1 1
        </DataArray>
        <DataArray type="Float32" Name="saturation_g" NumberOfComponents="1" format="ascii">
          0 0 0 0 0 0 0 0 0 0 0 0
          0 0 0 0 0 0 0 0 0 0 0 0
          0 0 0 0 0 0 0 0 0 0 0 0
          0 0 0 0 0 0 0 0 0 0 0 0
          0 0 0 0 0 0 0 0 0 0 0 0
          0 0 0 0 0 0 0 0 0 0 4.03568e-07 0.0137594
          0 0 0 0 0 0 0 0 0 0 0 0
          0 0 0 0 0 0 0 0 0 0 4.65551e-07 0.0137612
          0 0 0 0 0 0 0 0 0 0 0 0
          0 0 0 0 0 0 0 0 0 0 4.63239e-07 0.0137629
          0 0 0 0 0 0 0 0 0 0 0 0
          0 0 0 0 0 0 0 0 0 0 3.95919e-07 0.0137646
          0 0 0 0 0 0 0 0 0 0 0 0
          0 0 0 0 0 0 0 0 0 0 0 9.10179e-07
          0 0 0 0 0 0 0 0 0 0 0 0
          0 0 0 0 0 0 0 0 0 0 0 0
          0 0 0 0 0 0 0 0 0 0 0 0
          0 0 0 0 0 0 0 0 0 0 0 0
          0 0 0 0 0 0 0 0 0 0 0 0
          0 0 0 0 0 0 0 0 0 0 0 0
          0 0 0 0 0 0 0 0 0 0 0 0
          0 0 0 0 0 0 0 0 0 0 0 0
          0 0 0 0 0 0 0 0 0 0 0 0
          0 0 0 0 0 0 0 0 0 0 0 0
          0 0 0 0 0 0 0 0 0 0 0 0
          0 0 0 0 0 0 0 0 0 0 0 0
          0 0 0 0 0 0 0 0 0 0 0 0
          0 0 0 0 0 0 0 0 0 0 0 0
          0 0 0 0 0 0 0 0 0 0 0 0
          0 0 0 0 0 0 0 0 0 0 0 0
          0 0 0 0 0 0 0 0 0 0 0 0
          0 0 0 0 0 0 0 0 0 0 0 0
        </DataArray>
        <DataArray type="Float32" Name="relativePerm_l" NumberOfComponents="1" format="ascii">
          1 1 1 1 1 1 1 1 1 1 1 1
          1 1 1 1 1 1 1 1 1 1 1 1
          1 1 1 1 1 1 1 1 1 1 1 1
          1 1 1 1 1 1 1 1 1 1 1 1
          1 1 1 1 1 1 1 1 1 1 1 1
          1 1 1 1 1 1 1 1 1 1 0.999998 0.932958
          1 1 1 1 1 1 1 1 1 1 1 1
          1 1 1 1 1 1 1 1 1 1 0.999998 0.932949
          1 1 1 1 1 1 1 1 1 1 1 1
          1 1 1 1 1 1 1 1 1 1 0.999998 0.932941
          1 1 1 1 1 1 1 1 1 1 1 1
          1 1 1 1 1 1 1 1 1 1 0.999998 0.932933
          1 1 1 1 1 1 1 1 1 1 1 1
          1 1 1 1 1 1 1 1 1 1 1 0.999995
          1 1 1 1 1 1 1 1 1 1 1 1
          1 1 1 1 1 1 1 1 1 1 1 1
          1 1 1 1 1 1 1 1 1 1 1 1
          1 1 1 1 1 1 1 1 1 1 1 1
          1 1 1 1 1 1 1 1 1 1 1 1
          1 1 1 1 1 1 1 1 1 1 1 1
          1 1 1 1 1 1 1 1 1 1 1 1
          1 1 1 1 1 1 1 1 1 1 1 1
          1 1 1 1 1 1 1 1 1 1 1 1
          1 1 1 1 1 1 1 1 1 1 1 1
          1 1 1 1 1 1 1 1 1 1 1 1
          1 1 1 1 1 1 1 1 1 1 1 1
          1 1 1 1 1 1 1 1 1 1 1 1
          1 1 1 1 1 1 1 1 1 1 1 1
          1 1 1 1 1 1 1 1 1 1 1 1
          1 1 1 1 1 1 1 1 1 1 1 1
          1 1 1 1 1 1 1 1 1 1 1 1
          1 1 1 1 1 1 1 1 1 1 1 1
        </DataArray>
        <DataArray type="Float32" Name="relativePerm_g" NumberOfComponents="1" format="ascii">
          0 0 0 0 0 0 0 0 0 0 0 0
          0 0 0 0 0 0 0 0 0 0 0 0
          0 0 0 0 0 0 0 0 0 0 0 0
          0 0 0 0 0 0 0 0 0 0 0 0
          0 0 0 0 0 0 0 0 0 0 0 0
          0 0 0 0 0 0 0 0 0 0 2.5675e-19 1.0088e-05
          0 0 0 0 0 0 0 0 0 0 0 0
          0 0 0 0 0 0 0 0 0 0 3.94151e-19 1.0092e-05
          0 0 0 0 0 0 0 0 0 0 0 0
          0 0 0 0 0 0 0 0 0 0 3.88306e-19 1.00957e-05
          0 0 0 0 0 0 0 0 0 0 0 0
          0 0 0 0 0 0 0 0 0 0 2.42427e-19 1.00996e-05
          0 0 0 0 0 0 0 0 0 0 0 0
          0 0 0 0 0 0 0 0 0 0 0 2.94537e-18
          0 0 0 0 0 0 0 0 0 0 0 0
          0 0 0 0 0 0 0 0 0 0 0 0
          0 0 0 0 0 0 0 0 0 0 0 0
          0 0 0 0 0 0 0 0 0 0 0 0
          0 0 0 0 0 0 0 0 0 0 0 0
          0 0 0 0 0 0 0 0 0 0 0 0
          0 0 0 0 0 0 0 0 0 0 0 0
          0 0 0 0 0 0 0 0 0 0 0 0
          0 0 0 0 0 0 0 0 0 0 0 0
          0 0 0 0 0 0 0 0 0 0 0 0
          0 0 0 0 0 0 0 0 0 0 0 0
          0 0 0 0 0 0 0 0 0 0 0 0
          0 0 0 0 0 0 0 0 0 0 0 0
          0 0 0 0 0 0 0 0 0 0 0 0
          0 0 0 0 0 0 0 0 0 0 0 0
          0 0 0 0 0 0 0 0 0 0 0 0
          0 0 0 0 0 0 0 0 0 0 0 0
          0 0 0 0 0 0 0 0 0 0 0 0
        </DataArray>
        <DataArray type="Float32" Name="porosity" NumberOfComponents="1" format="ascii">
          0.3 0.3 0.3 0.3 0.3 0.3 0.3 0.3 0.3 0.3 0.3 0.3
          0.3 0.3 0.3 0.3 0.3 0.3 0.3 0.3 0.3 0.3 0.3 0.3
          0.3 0.3 0.3 0.3 0.3 0.3 0.3 0.3 0.3 0.3 0.3 0.3
          0.3 0.3 0.3 0.3 0.3 0.3 0.3 0.3 0.3 0.3 0.3 0.3
          0.3 0.3 0.3 0.3 0.3 0.3 0.3 0.3 0.3 0.3 0.3 0.3
          0.3 0.3 0.3 0.3 0.3 0.3 0.3 0.3 0.3 0.3 0.3 0.3
          0.3 0.3 0.3 0.3 0.3 0.3 0.3 0.3 0.3 0.3 0.3 0.3
          0.3 0.3 0.3 0.3 0.3 0.3 0.3 0.3 0.3 0.3 0.3 0.3
          0.3 0.3 0.3 0.3 0.3 0.3 0.3 0.3 0.3 0.3 0.3 0.3
          0.3 0.3 0.3 0.3 0.3 0.3 0.3 0.3 0.3 0.3 0.3 0.3
          0.3 0.3 0.3 0.3 0.3 0.3 0.3 0.3 0.3 0.3 0.3 0.3
          0.3 0.3 0.3 0.3 0.3 0.3 0.3 0.3 0.3 0.3 0.3 0.3
          0.3 0.3 0.3 0.3 0.3 0.3 0.3 0.3 0.3 0.3 0.3 0.3
          0.3 0.3 0.3 0.3 0.3 0.3 0.3 0.3 0.3 0.3 0.3 0.3
          0.3 0.3 0.3 0.3 0.3 0.3 0.3 0.3 0.3 0.3 0.3 0.3
          0.3 0.3 0.3 0.3 0.3 0.3 0.3 0.3 0.3 0.3 0.3 0.3
          0.3 0.3 0.3 0.3 0.3 0.3 0.3 0.3 0.3 0.3 0.3 0.3
          0.3 0.3 0.3 0.3 0.3 0.3 0.3 0.3 0.3 0.3 0.3 0.3
          0.3 0.3 0.3 0.3 0.3 0.3 0.3 0.3 0.3 0.3 0.3 0.3
          0.3 0.3 0.3 0.3 0.3 0.3 0.3 0.3 0.3 0.3 0.3 0.3
          0.3 0.3 0.3 0.3 0.3 0.3 0.3 0.3 0.3 0.3 0.3 0.3
          0.3 0.3 0.3 0.3 0.3 0.3 0.3 0.3 0.3 0.3 0.3 0.3
          0.3 0.3 0.3 0.3 0.3 0.3 0.3 0.3 0.3 0.3 0.3 0.3
          0.3 0.3 0.3 0.3 0.3 0.3 0.3 0.3 0.3 0.3 0.3 0.3
          0.3 0.3 0.3 0.3 0.3 0.3 0.3 0.3 0.3 0.3 0.3 0.3
          0.3 0.3 0.3 0.3 0.3 0.3 0.3 0.3 0.3 0.3 0.3 0.3
          0.3 0.3 0.3 0.3 0.3 0.3 0.3 0.3 0.3 0.3 0.3 0.3
          0.3 0.3 0.3 0.3 0.3 0.3 0.3 0.3 0.3 0.3 0.3 0.3
          0.3 0.3 0.3 0.3 0.3 0.3 0.3 0.3 0.3 0.3 0.3 0.3
          0.3 0.3 0.3 0.3 0.3 0.3 0.3 0.3 0.3 0.3 0.3 0.3
          0.3 0.3 0.3 0.3 0.3 0.3 0.3 0.3 0.3 0.3 0.3 0.3
          0.3 0.3 0.3 0.3 0.3 0.3 0.3 0.3 0.3 0.3 0.3 0.3
        </DataArray>
        <DataArray type="Float32" Name="temperature" NumberOfComponents="1" format="ascii">
          293.15 293.15 293.15 293.15 293.15 293.15 293.15 293.15 293.15 293.15 293.15 293.15
          293.15 293.15 293.15 293.15 293.15 293.15 293.15 293.15 293.15 293.15 293.15 293.15
          293.15 293.15 293.15 293.15 293.15 293.15 293.15 293.15 293.15 293.15 293.15 293.15
          293.15 293.15 293.15 293.15 293.15 293.15 293.15 293.15 293.15 293.15 293.15 293.15
          293.15 293.15 293.15 293.15 293.15 293.15 293.15 293.15 393.15 393.15 393.15 393.15
          293.15 293.15 293.15 293.15 293.15 293.15 293.15 293.15 293.15 293.15 293.15 293.15
          293.15 293.15 293.15 293.15 293.15 293.15 293.15 293.15 393.15 393.15 393.15 393.15
          293.15 293.15 293.15 293.15 293.15 293.15 293.15 293.15 293.15 293.15 293.15 293.15
          293.15 293.15 293.15 293.15 293.15 293.15 293.15 293.15 393.15 393.15 393.15 393.15
          293.15 293.15 293.15 293.15 293.15 293.15 293.15 293.15 293.15 293.15 293.15 293.15
          293.15 293.15 293.15 293.15 293.15 293.15 293.15 293.15 393.15 393.15 393.15 393.15
          293.15 293.15 293.15 293.15 293.15 293.15 293.15 293.15 293.15 293.15 293.15 293.15
          293.15 293.15 293.15 293.15 293.15 293.15 293.15 293.15 393.15 393.15 393.15 393.15
          293.15 293.15 293.15 293.15 293.15 293.15 293.15 293.15 293.15 293.15 293.15 293.15
          293.15 293.15 293.15 293.15 293.15 293.15 293.15 293.15 393.15 393.15 393.15 393.15
          293.15 293.15 293.15 293.15 293.15 293.15 293.15 293.15 293.15 293.15 293.15 293.15
          293.15 293.15 293.15 293.15 293.15 293.15 293.15 293.15 393.15 393.15 393.15 393.15
          293.15 293.15 293.15 293.15 293.15 293.15 293.15 293.15 293.15 293.15 293.15 293.15
          293.15 293.15 293.15 293.15 293.15 293.15 293.15 293.15 393.15 393.15 393.15 393.15
          293.15 293.15 293.15 293.15 293.15 293.15 293.15 293.15 293.15 293.15 293.15 293.15
          293.15 293.15 293.15 293.15 293.15 293.15 293.15 293.15 393.15 393.15 393.15 393.15
          293.15 293.15 293.15 293.15 293.15 293.15 293.15 293.15 293.15 293.15 293.15 293.15
          293.15 293.15 293.15 293.15 293.15 293.15 293.15 293.15 393.15 393.15 393.15 393.15
          293.15 293.15 293.15 293.15 293.15 293.15 293.15 293.15 293.15 293.15 293.15 293.15
          293.15 293.15 293.15 293.15 293.15 293.15 293.15 293.15 393.15 393.15 393.15 393.15
          293.15 293.15 293.15 293.15 293.15 293.15 293.15 293.15 293.15 293.15 293.15 293.15
          293.15 293.15 293.15 293.15 293.15 293.15 293.15 293.15 393.15 393.15 393.15 393.15
          293.15 293.15 293.15 293.15 293.15 293.15 293.15 293.15 293.15 293.15 293.15 293.15
          293.15 293.15 293.15 293.15 293.15 293.15 293.15 293.15 293.15 293.15 293.15 293.15
          293.15 293.15 293.15 293.15 293.15 293.15 293.15 293.15 293.15 293.15 293.15 293.15
          293.15 293.15 293.15 293.15 293.15 293.15 293.15 293.15 293.15 293.15 293.15 293.15
          293.15 293.15 293.15 293.15 293.15 293.15 293.15 293.15 293.15 293.15 293.15 293.15
        </DataArray>
      </CellData>
      <Points>
        <DataArray type="Float32" Name="Coordinates" NumberOfComponents="3" format="ascii">
          0 0 0 2.5 0 0 0 2.5 0 2.5 2.5 0
          5 0 0 5 2.5 0 7.5 0 0 7.5 2.5 0
          10 0 0 10 2.5 0 12.5 0 0 12.5 2.5 0
          15 0 0 15 2.5 0 17.5 0 0 17.5 2.5 0
          20 0 0 20 2.5 0 22.5 0 0 22.5 2.5 0
          25 0 0 25 2.5 0 27.5 0 0 27.5 2.5 0
          30 0 0 30 2.5 0 32.5 0 0 32.5 2.5 0
          35 0 0 35 2.5 0 37.5 0 0 37.5 2.5 0
          40 0 0 40 2.5 0 42.5 0 0 42.5 2.5 0
          45 0 0 45 2.5 0 47.5 0 0 47.5 2.5 0
          50 0 0 50 2.5 0 52.5 0 0 52.5 2.5 0
          55 0 0 55 2.5 0 57.5 0 0 57.5 2.5 0
          60 0 0 60 2.5 0 0 5 0 2.5 5 0
          5 5 0 7.5 5 0 10 5 0 12.5 5 0
          15 5 0 17.5 5 0 20 5 0 22.5 5 0
          25 5 0 27.5 5 0 30 5 0 32.5 5 0
          35 5 0 37.5 5 0 40 5 0 42.5 5 0
          45 5 0 47.5 5 0 50 5 0 52.5 5 0
          55 5 0 57.5 5 0 60 5 0 0 7.5 0
          2.5 7.5 0 5 7.5 0 7.5 7.5 0 10 7.5 0
          12.5 7.5 0 15 7.5 0 17.5 7.5 0 20 7.5 0
          22.5 7.5 0 25 7.5 0 27.5 7.5 0 30 7.5 0
          32.5 7.5 0 35 7.5 0 37.5 7.5 0 40 7.5 0
          42.5 7.5 0 45 7.5 0 47.5 7.5 0 50 7.5 0
          52.5 7.5 0 55 7.5 0 57.5 7.5 0 60 7.5 0
          0 10 0 2.5 10 0 5 10 0 7.5 10 0
          10 10 0 12.5 10 0 15 10 0 17.5 10 0
          20 10 0 22.5 10 0 25 10 0 27.5 10 0
          30 10 0 32.5 10 0 35 10 0 37.5 10 0
          40 10 0 42.5 10 0 45 10 0 47.5 10 0
          50 10 0 52.5 10 0 55 10 0 57.5 10 0
          60 10 0 0 12.5 0 2.5 12.5 0 5 12.5 0
          7.5 12.5 0 10 12.5 0 12.5 12.5 0 15 12.5 0
          17.5 12.5 0 20 12.5 0 22.5 12.5 0 25 12.5 0
          27.5 12.5 0 30 12.5 0 32.5 12.5 0 35 12.5 0
          37.5 12.5 0 40 12.5 0 42.5 12.5 0 45 12.5 0
          47.5 12.5 0 50 12.5 0 52.5 12.5 0 55 12.5 0
          57.5 12.5 0 60 12.5 0 0 15 0 2.5 15 0
          5 15 0 7.5 15 0 10 15 0 12.5 15 0
          15 15 0 17.5 15 0 20 15 0 22.5 15 0
          25 15 0 27.5 15 0 30 15 0 32.5 15 0
          35 15 0 37.5 15 0 40 15 0 42.5 15 0
          45 15 0 47.5 15 0 50 15 0 52.5 15 0
          55 15 0 57.5 15 0 60 15 0 0 17.5 0
          2.5 17.5 0 5 17.5 0 7.5 17.5 0 10 17.5 0
          12.5 17.5 0 15 17.5 0 17.5 17.5 0 20 17.5 0
          22.5 17.5 0 25 17.5 0 27.5 17.5 0 30 17.5 0
          32.5 17.5 0 35 17.5 0 37.5 17.5 0 40 17.5 0
          42.5 17.5 0 45 17.5 0 47.5 17.5 0 50 17.5 0
          52.5 17.5 0 55 17.5 0 57.5 17.5 0 60 17.5 0
          0 20 0 2.5 20 0 5 20 0 7.5 20 0
          10 20 0 12.5 20 0 15 20 0 17.5 20 0
          20 20 0 22.5 20 0 25 20 0 27.5 20 0
          30 20 0 32.5 20 0 35 20 0 37.5 20 0