<?xml version="1.0"?>
<VTKFile type="UnstructuredGrid" version="0.1" byte_order="LittleEndian">
  <UnstructuredGrid>
    <Piece NumberOfCells="384" NumberOfPoints="425">
      <PointData Scalars="pressure_l">
        <DataArray type="Float32" Name="pressure_l" NumberOfComponents="1" format="ascii">
          2.63182e+07 2.63225e+07 2.62954e+07 2.62964e+07 2.63244e+07 2.6298e+07 2.63258e+07 2.62994e+07 2.63271e+07 2.63007e+07 2.63283e+07 2.63018e+07
          2.63293e+07 2.63028e+07 2.63302e+07 2.63037e+07 2.6331e+07 2.63045e+07 2.63318e+07 2.63052e+07 2.63327e+07 2.63061e+07 2.63338e+07 2.63072e+07
          2.63352e+07 2.63087e+07 2.63368e+07 2.63103e+07 2.63384e+07 2.63119e+07 2.63399e+07 2.63134e+07 2.63414e+07 2.6315e+07 2.63429e+07 2.63165e+07
          2.63444e+07 2.63179e+07 2.63459e+07 2.63194e+07 2.63473e+07 2.63208e+07 2.63487e+07 2.63222e+07 2.63499e+07 2.63235e+07 2.63508e+07 2.63246e+07
          2.63512e+07 2.63251e+07 2.62696e+07 2.62706e+07 2.62719e+07 2.62731e+07 2.62744e+07 2.62755e+07 2.62766e+07 2.62775e+07 2.62781e+07 2.62784e+07
          2.62791e+07 2.62802e+07 2.6282e+07 2.62838e+07 2.62854e+07 2.6287e+07 2.62885e+07 2.629e+07 2.62915e+07 2.62929e+07 2.62944e+07 2.62959e+07
          2.62974e+07 2.62989e+07 2.63005e+07 2.62434e+07 2.62445e+07 2.62457e+07 2.62469e+07 2.62482e+07 2.62493e+07 2.62504e+07 2.62514e+07 2.62521e+07
          2.62522e+07 2.62526e+07 2.62531e+07 2.62556e+07 2.62574e+07 2.62591e+07 2.62606e+07 2.62621e+07 2.62636e+07 2.6265e+07 2.62665e+07 2.6268e+07
          2.62695e+07 2.62712e+07 2.62731e+07 2.62761e+07 2.62172e+07 2.62184e+07 2.62196e+07 2.62208e+07 2.6222e+07 2.62232e+07 2.62244e+07 2.62255e+07
          2.62265e+07 2.62268e+07 2.62272e+07 2.62277e+07 2.62295e+07 2.62312e+07 2.62328e+07 2.62342e+07 2.62357e+07 2.62371e+07 2.62385e+07 2.624e+07
          2.62415e+07 2.6243e+07 2.62448e+07 2.62468e+07 2.625e+07 2.6191e+07 2.61922e+07 2.61934e+07 2.61946e+07 2.61958e+07 2.61971e+07 2.61984e+07
          2.61996e+07 2.62009e+07 2.62013e+07 2.62017e+07 2.62022e+07 2.62037e+07 2.62051e+07 2.62065e+07 2.62079e+07 2.62093e+07 2.62107e+07 2.62121e+07
          2.62135e+07 2.62149e+07 2.62164e+07 2.6218e+07 2.62199e+07 2.62229e+07 2.61648e+07 2.61659e+07 2.61671e+07 2.61684e+07 2.61696e+07 2.6171e+07
          2.61724e+07 2.61738e+07 2.61753e+07 2.61758e+07 2.61763e+07 2.61767e+07 2.61779e+07 2.61791e+07 2.61804e+07 2.61816e+07 2.61829e+07 2.61842e+07
          2.61856e+07 2.61869e+07 2.61883e+07 2.61897e+07 2.61911e+07 2.61925e+07 2.61941e+07 2.61385e+07 2.61397e+07 2.61408e+07 2.61421e+07 2.61434e+07
          2.61448e+07 2.61463e+07 2.6148e+07 2.61498e+07 2.61503e+07 2.61508e+07 2.61512e+07 2.61521e+07 2.6153e+07 2.61541e+07 2.61553e+07 2.61565e+07
          2.61578e+07 2.61591e+07 2.61604e+07 2.61616e+07 2.61629e+07 2.6164e+07 2.6165e+07 2.61654e+07 2.61123e+07 2.61133e+07 2.61145e+07 2.61158e+07
          2.61171e+07 2.61185e+07 2.61201e+07 2.61219e+07 2.6124e+07 2.6125e+07 2.61255e+07 2.61259e+07 2.61261e+07 2.61268e+07 2.61278e+07 2.61289e+07
          2.61301e+07 2.61313e+07 2.61326e+07 2.61338e+07 2.6135e+07 2.61362e+07 2.61372e+07 2.61379e+07 2.61382e+07 2.60861e+07 2.60872e+07 2.60884e+07
          2.60897e+07 2.6091e+07 2.60925e+07 2.60942e+07 2.6096e+07 2.60983e+07 2.60992e+07 2.60998e+07 2.61001e+07 2.61002e+07 2.61008e+07 2.61017e+07
          2.61027e+07 2.61038e+07 2.61049e+07 2.6106e+07 2.61071e+07 2.61082e+07 2.61092e+07 2.611e+07 2.61106e+07 2.61108e+07 2.60599e+07 2.60611e+07
          2.60624e+07 2.60638e+07 2.60652e+07 2.60668e+07 2.60685e+07 2.60704e+07 2.60724e+07 2.6073e+07 2.60735e+07 2.60738e+07 2.60744e+07 2.6075e+07
          2.60757e+07 2.60766e+07 2.60775e+07 2.60784e+07 2.60794e+07 2.60803e+07 2.60812e+07 2.6082e+07 2.60826e+07 2.6083e+07 2.60832e+07 2.60338e+07
          2.60351e+07 2.60364e+07 2.60378e+07 2.60393e+07 2.60409e+07 2.60426e+07 2.60445e+07 2.60464e+07 2.6047e+07 2.60475e+07 2.60478e+07 2.60485e+07
          2.6049e+07 2.60497e+07 2.60504e+07 2.60511e+07 2.60519e+07 2.60527e+07 2.60535e+07 2.60543e+07 2.60549e+07 2.60554e+07 2.60557e+07 2.60558e+07
          2.60076e+07 2.6009e+07 2.60104e+07 2.60118e+07 2.60133e+07 2.60149e+07 2.60166e+07 2.60185e+07 2.60205e+07 2.60211e+07 2.60217e+07 2.6022e+07
          2.60225e+07 2.6023e+07 2.60235e+07 2.60241e+07 2.60248e+07 2.60255e+07 2.60261e+07 2.60268e+07 2.60274e+07 2.60279e+07 2.60283e+07 2.60286e+07
          2.60287e+07 2.59814e+07 2.59829e+07 2.59843e+07 2.59857e+07 2.59872e+07 2.59887e+07 2.59904e+07 2.59923e+07 2.59946e+07 2.59954e+07 2.59961e+07
          2.59965e+07 2.59966e+07 2.59969e+07 2.59973e+07 2.59978e+07 2.59984e+07 2.5999e+07 2.59996e+07 2.60002e+07 2.60007e+07 2.60011e+07 2.60015e+07
          2.60017e+07 2.60017e+07 2.59553e+07 2.59568e+07 2.59582e+07 2.59595e+07 2.59609e+07 2.59625e+07 2.59641e+07 2.59658e+07 2.59675e+07 2.59693e+07
          2.59701e+07 2.59705e+07 2.59704e+07 2.59706e+07 2.5971e+07 2.59714e+07 2.59719e+07 2.59725e+07 2.5973e+07 2.59735e+07 2.5974e+07 2.59744e+07
          2.59747e+07 2.59749e+07 2.5975e+07 2.59294e+07 2.5931e+07 2.5932e+07 2.59333e+07 2.59346e+07 2.59361e+07 2.59377e+07 2.59392e+07 2.59408e+07
          2.59421e+07 2.59431e+07 2.59436e+07 2.59439e+07 2.59442e+07 2.59446e+07 2.5945e+07 2.59455e+07 2.5946e+07 2.59465e+07 2.5947e+07 2.59474e+07
          2.59478e+07 2.59481e+07 2.59482e+07 2.59483e+07 2.59067e+07 2.5905e+07 2.59057e+07 2.59069e+07 2.59082e+07 2.59096e+07 2.59112e+07 2.59127e+07
          2.59142e+07 2.59155e+07 2.59164e+07 2.5917e+07 2.59174e+07 2.59178e+07 2.59181e+07 2.59186e+07 2.5919e+07 2.59195e+07 2.592e+07 2.59205e+07
          2.59209e+07 2.59212e+07 2.59215e+07 2.59217e+07 2.59217e+07
        </DataArray>
        <DataArray type="Float32" Name="pressure_g" NumberOfComponents="1" format="ascii">
          2.63232e+07 2.63275e+07 2.63004e+07 2.63014e+07 2.63294e+07 2.6303e+07 2.63308e+07 2.63044e+07 2.63321e+07 2.63057e+07 2.63333e+07 2.63068e+07
          2.63343e+07 2.63078e+07 2.63352e+07 2.63087e+07 2.6336e+07 2.63095e+07 2.63368e+07 2.63102e+07 2.63377e+07 2.63111e+07 2.63388e+07 2.63122e+07
          2.63402e+07 2.63137e+07 2.63418e+07 2.63153e+07 2.63434e+07 2.63169e+07 2.63449e+07 2.63184e+07 2.63464e+07 2.632e+07 2.63479e+07 2.63215e+07
          2.63494e+07 2.63229e+07 2.63509e+07 2.63244e+07 2.63523e+07 2.63258e+07 2.63537e+07 2.63272e+07 2.63549e+07 2.63285e+07 2.63558e+07 2.63296e+07
          2.63562e+07 2.63301e+07 2.62746e+07 2.62756e+07 2.62769e+07 2.62781e+07 2.62794e+07 2.62805e+07 2.62816e+07 2.62825e+07 2.62831e+07 2.62834e+07
          2.62841e+07 2.62852e+07 2.6287e+07 2.62888e+07 2.62904e+07 2.6292e+07 2.62935e+07 2.6295e+07 2.62965e+07 2.62979e+07 2.62994e+07 2.63009e+07
          2.63024e+07 2.63039e+07 2.63056e+07 2.62484e+07 2.62495e+07 2.62507e+07 2.62519e+07 2.62532e+07 2.62543e+07 2.62554e+07 2.62564e+07 2.62571e+07
          2.62572e+07 2.62576e+07 2.62581e+07 2.62606e+07 2.62624e+07 2.62641e+07 2.62656e+07 2.62671e+07 2.62686e+07 2.627e+07 2.62715e+07 2.6273e+07
          2.62745e+07 2.62762e+07 2.62781e+07 2.62812e+07 2.62222e+07 2.62234e+07 2.62246e+07 2.62258e+07 2.6227e+07 2.62282e+07 2.62294e+07 2.62305e+07
          2.62315e+07 2.62318e+07 2.62322e+07 2.62327e+07 2.62345e+07 2.62362e+07 2.62378e+07 2.62392e+07 2.62407e+07 2.62421e+07 2.62435e+07 2.6245e+07
          2.62465e+07 2.6248e+07 2.62498e+07 2.62518e+07 2.62551e+07 2.6196e+07 2.61972e+07 2.61984e+07 2.61996e+07 2.62008e+07 2.62021e+07 2.62034e+07
          2.62046e+07 2.62059e+07 2.62063e+07 2.62067e+07 2.62072e+07 2.62087e+07 2.62101e+07 2.62115e+07 2.62129e+07 2.62143e+07 2.62157e+07 2.62171e+07
          2.62185e+07 2.62199e+07 2.62214e+07 2.6223e+07 2.62249e+07 2.6228e+07 2.61698e+07 2.61709e+07 2.61721e+07 2.61734e+07 2.61746e+07 2.6176e+07
          2.61774e+07 2.61788e+07 2.61803e+07 2.61808e+07 2.61813e+07 2.61817e+07 2.61829e+07 2.61841e+07 2.61854e+07 2.61866e+07 2.61879e+07 2.61892e+07
          2.61906e+07 2.61919e+07 2.61933e+07 2.61947e+07 2.61961e+07 2.61975e+07 2.61992e+07 2.61435e+07 2.61447e+07 2.61458e+07 2.61471e+07 2.61484e+07
          2.61498e+07 2.61513e+07 2.6153e+07 2.61548e+07 2.61553e+07 2.61558e+07 2.61562e+07 2.61571e+07 2.6158e+07 2.61591e+07 2.61603e+07 2.61615e+07
          2.61628e+07 2.61641e+07 2.61654e+07 2.61666e+07 2.61679e+07 2.6169e+07 2.617e+07 2.61704e+07 2.61173e+07 2.61183e+07 2.61195e+07 2.61208e+07
          2.61221e+07 2.61235e+07 2.61251e+07 2.61269e+07 2.6129e+07 2.613e+07 2.61305e+07 2.61309e+07 2.61311e+07 2.61318e+07 2.61328e+07 2.61339e+07
          2.61351e+07 2.61363e+07 2.61376e+07 2.61388e+07 2.614e+07 2.61412e+07 2.61422e+07 2.61429e+07 2.61432e+07 2.60961e+07 2.60972e+07 2.60984e+07
          2.60997e+07 2.6101e+07 2.61025e+07 2.61042e+07 2.6106e+07 2.61083e+07 2.61092e+07 2.61098e+07 2.61101e+07 2.61102e+07 2.61108e+07 2.61117e+07
          2.61127e+07 2.61138e+07 2.61149e+07 2.6116e+07 2.61171e+07 2.61182e+07 2.61192e+07 2.612e+07 2.61206e+07 2.61208e+07 2.60699e+07 2.60711e+07
          2.60724e+07 2.60738e+07 2.60752e+07 2.60768e+07 2.60785e+07 2.60804e+07 2.60824e+07 2.6083e+07 2.60835e+07 2.60838e+07 2.60844e+07 2.6085e+07
          2.60857e+07 2.60866e+07 2.60875e+07 2.60884e+07 2.60894e+07 2.60903e+07 2.60912e+07 2.6092e+07 2.60926e+07 2.6093e+07 2.60932e+07 2.60438e+07
          2.60451e+07 2.60464e+07 2.60478e+07 2.60493e+07 2.60509e+07 2.60526e+07 2.60545e+07 2.60564e+07 2.6057e+07 2.60575e+07 2.60578e+07 2.60585e+07
          2.6059e+07 2.60597e+07 2.60604e+07 2.60611e+07 2.60619e+07 2.60627e+07 2.60635e+07 2.60643e+07 2.60649e+07 2.60654e+07 2.60657e+07 2.60658e+07
          2.60176e+07 2.6019e+07 2.60204e+07 2.60218e+07 2.60233e+07 2.60249e+07 2.60266e+07 2.60285e+07 2.60305e+07 2.60311e+07 2.60317e+07 2.6032e+07
          2.60325e+07 2.6033e+07 2.60335e+07 2.60341e+07 2.60348e+07 2.60355e+07 2.60361e+07 2.60368e+07 2.60374e+07 2.60379e+07 2.60383e+07 2.60386e+07
          2.60387e+07 2.59914e+07 2.59929e+07 2.59943e+07 2.59957e+07 2.59972e+07 2.59987e+07 2.60004e+07 2.60023e+07 2.60046e+07 2.60054e+07 2.60061e+07
          2.60065e+07 2.60066e+07 2.60069e+07 2.60073e+07 2.60078e+07 2.60084e+07 2.6009e+07 2.60096e+07 2.60102e+07 2.60107e+07 2.60111e+07 2.60115e+07
          2.60117e+07 2.60117e+07 2.59653e+07 2.59668e+07 2.59682e+07 2.59695e+07 2.59709e+07 2.59725e+07 2.59741e+07 2.59758e+07 2.59775e+07 2.59793e+07
          2.59801e+07 2.59805e+07 2.59804e+07 2.59806e+07 2.5981e+07 2.59814e+07 2.59819e+07 2.59825e+07 2.5983e+07 2.59835e+07 2.5984e+07 2.59844e+07
          2.59847e+07 2.59849e+07 2.5985e+07 2.59394e+07 2.5941e+07 2.5942e+07 2.59433e+07 2.59446e+07 2.59461e+07 2.59477e+07 2.59492e+07 2.59508e+07
          2.59521e+07 2.59531e+07 2.59536e+07 2.59539e+07 2.59542e+07 2.59546e+07 2.5955e+07 2.59555e+07 2.5956e+07 2.59565e+07 2.5957e+07 2.59574e+07
          2.59578e+07 2.59581e+07 2.59582e+07 2.59583e+07 2.59167e+07 2.5915e+07 2.59157e+07 2.59169e+07 2.59182e+07 2.59196e+07 2.59212e+07 2.59227e+07
          2.59242e+07 2.59255e+07 2.59264e+07 2.5927e+07 2.59274e+07 2.59278e+07 2.59281e+07 2.59286e+07 2.5929e+07 2.59295e+07 2.593e+07 2.59305e+07
          2.59309e+07 2.59312e+07 2.59315e+07 2.59317e+07 2.59317e+07
        </DataArray>
        <DataArray type="Float32" Name="density_l" NumberOfComponents="1" format="ascii">
          1080.19 1080.19 1080.19 1080.18 1080.19 1080.18 1080.19 1080.18 1080.19 1080.18 1080.19 1080.18
          1080.19 1080.18 1080.19 1080.18 1080.19 1080.18 1080.19 1080.18 1080.2 1080.18 1080.2 1080.18
          1080.2 1080.19 1080.2 1080.19 1080.2 1080.19 1080.2 1080.19 1080.2 1080.19 1080.2 1080.19
          1080.2 1080.19 1080.2 1080.19 1080.2 1080.19 1080.2 1080.19 1080.2 1080.19 1080.2 1080.19
          1080.2 1080.19 1080.18 1080.17 1080.17 1080.17 1080.17 1080.17 1080.17 1080.17 1080.17 1080.15
          1080.15 1080.15 1080.17 1080.17 1080.18 1080.18 1080.18 1080.18 1080.18 1080.18 1080.18 1080.18
          1080.18 1080.18 1080.18 1080.17 1080.16 1080.16 1080.16 1080.16 1080.16 1080.16 1080.16 1080.13
          1017.27 1017.26 1017.72 1080.14 1080.16 1080.16 1080.16 1080.17 1080.17 1080.17 1080.17 1080.17
          1080.17 1080.17 1080.17 1080.17 1080.16 1080.15 1080.15 1080.15 1080.15 1080.15 1080.15 1080.15
          1080.08 1017.12 1017.05 1017.4 1080.13 1080.15 1080.15 1080.15 1080.15 1080.16 1080.16 1080.16
          1080.16 1080.16 1080.16 1080.16 1080.16 1080.15 1080.14 1080.14 1080.14 1080.14 1080.14 1080.14
          1080.14 1080.05 1017.11 1017.04 1017.33 1080.12 1080.14 1080.14 1080.14 1080.14 1080.14 1080.14
          1080.15 1080.15 1080.15 1080.15 1080.15 1080.15 1080.14 1080.13 1080.13 1080.13 1080.13 1080.13
          1080.13 1080.13 1080.03 1017.1 1017.03 1017.28 1080.1 1080.13 1080.13 1080.13 1080.13 1080.13
          1080.13 1080.13 1080.13 1080.14 1080.14 1080.14 1080.14 1080.13 1080.11 1080.11 1080.12 1080.12
          1080.12 1080.12 1080.12 1080 1017.09 1017.02 1017.21 1080.09 1080.12 1080.12 1080.12 1080.12
          1080.12 1080.12 1080.12 1080.12 1080.12 1080.12 1080.12 1080.12 1080.12 1080.1 1080.1 1080.1
          1080.1 1080.11 1080.11 1080.11 1079.95 1017.08 1017.01 1017.12 1080.08 1080.11 1080.11 1080.11
          1080.11 1080.11 1080.11 1080.11 1080.11 1080.11 1080.11 1080.11 1080.11 1080.09 1080.09 1080.09
          1080.09 1080.09 1080.09 1080.09 1080.1 1080.06 1017.08 1017 1017.08 1080.07 1080.1 1080.1
          1080.1 1080.1 1080.1 1080.1 1080.1 1080.1 1080.1 1080.1 1080.1 1080.1 1080.08 1080.08
          1080.08 1080.08 1080.08 1080.08 1080.08 1080.08 1080.05 1017.07 1016.99 1017.07 1080.06 1080.09
          1080.09 1080.09 1080.09 1080.09 1080.09 1080.09 1080.09 1080.09 1080.09 1080.09 1080.09 1080.07
          1080.07 1080.07 1080.07 1080.07 1080.07 1080.07 1080.07 1080.04 1017.06 1016.98 1017.07 1080.05
          1080.08 1080.08 1080.08 1080.08 1080.08 1080.08 1080.08 1080.08 1080.08 1080.08 1080.08 1080.08
          1080.06 1080.06 1080.06 1080.06 1080.06 1080.06 1080.06 1080.06 1080.03 1017.05 1016.97 1017.05
          1080.04 1080.07 1080.07 1080.07 1080.07 1080.07 1080.07 1080.07 1080.07 1080.07 1080.07 1080.07
          1080.07 1080.05 1080.05 1080.05 1080.05 1080.05 1080.05 1080.05 1080.05 1080.02 1017.09 1017.04
          1017.1 1080.03 1080.05 1080.05 1080.05 1080.05 1080.05 1080.06 1080.06 1080.06 1080.06 1080.06
          1080.06 1080.06 1080.04 1080.04 1080.04 1080.04 1080.04 1080.04 1080.04 1080.04 1080.04 1080.02
          1080.01 1080.02 1080.04 1080.04 1080.04 1080.04 1080.04 1080.04 1080.04 1080.04 1080.04 1080.04
          1080.04 1080.04 1080.04 1080.03 1080.03 1080.03 1080.03 1080.03 1080.03 1080.03 1080.03 1080.03
          1080.03 1080.03 1080.03 1080.03 1080.03 1080.03 1080.03 1080.03 1080.03 1080.03 1080.03 1080.03
          1080.03 1080.03 1080.03 1080.03 1080.02 1080.02 1080.02 1080.02 1080.02 1080.02 1080.02 1080.02
          1080.02 1080.02 1080.02 1080.02 1080.02 1080.02 1080.02 1080.02 1080.02 1080.02 1080.02 1080.02
          1080.02 1080.02 1080.02 1080.02 1080.02
        </DataArray>
        <DataArray type="Float32" Name="density_g" NumberOfComponents="1" format="ascii">
          969.128 969.146 969.208 969.028 969.154 969.035 969.16 969.041 969.166 969.047 969.171 969.052
          969.176 969.057 969.18 969.061 969.183 969.064 969.187 969.067 969.191 969.071 969.196 969.076
          969.202 969.083 969.209 969.09 969.216 969.097 969.223 969.104 969.23 969.111 969.236 969.118
          969.243 969.124 969.25 969.131 969.256 969.137 969.262 969.143 969.267 969.149 969.271 969.154
          969.273 969.156 969.082 968.912 968.917 968.923 968.928 968.934 968.938 968.942 968.865 968.706
          968.63 968.715 968.883 968.971 968.978 968.985 968.992 968.998 969.005 969.011 969.018 969.025
          969.031 969.038 969.046 968.962 968.794 968.799 968.805 968.81 968.815 968.82 968.824 968.378
          528.704 528.661 530.577 968.604 968.852 968.859 968.866 968.872 968.879 968.886 968.892 968.899
          968.906 968.913 968.922 968.936 968.843 968.676 968.681 968.687 968.692 968.698 968.703 968.706
          967.82 527.683 527.381 528.833 968.406 968.733 968.74 968.747 968.753 968.76 968.766 968.773
          968.779 968.786 968.794 968.803 968.818 968.725 968.558 968.563 968.569 968.574 968.58 968.586
          968.589 967.499 527.246 526.943 528.167 968.289 968.616 968.622 968.628 968.634 968.641 968.647
          968.653 968.659 968.666 968.673 968.682 968.696 968.607 968.44 968.445 968.45 968.456 968.462
          968.468 968.472 967.232 526.81 526.507 527.553 968.172 968.498 968.504 968.51 968.516 968.521
          968.527 968.533 968.539 968.546 968.552 968.558 968.566 968.489 968.321 968.326 968.332 968.338
          968.344 968.351 968.355 966.868 526.374 526.072 526.89 968.055 968.381 968.386 968.391 968.396
          968.402 968.408 968.414 968.419 968.425 968.43 968.434 968.436 968.372 968.202 968.207 968.213
          968.219 968.225 968.233 968.236 966.207 525.94 525.639 526.12 967.927 968.263 968.267 968.272
          968.277 968.283 968.288 968.294 968.299 968.304 968.309 968.312 968.313 968.119 968.106 968.111
          968.117 968.123 968.13 968.137 968.145 967.66 525.582 525.28 525.609 967.841 968.167 968.171
          968.176 968.181 968.186 968.191 968.196 968.201 968.205 968.209 968.211 968.212 968 967.988
          967.993 968 968.006 968.013 968.021 968.029 967.589 525.13 524.827 525.175 967.725 968.05
          968.053 968.057 968.061 968.065 968.07 968.074 968.078 968.081 968.084 968.086 968.087 967.881
          967.869 967.875 967.882 967.888 967.896 967.903 967.911 967.483 524.68 524.377 524.73 967.607
          967.932 967.935 967.938 967.942 967.945 967.949 967.952 967.956 967.958 967.961 967.962 967.963
          967.762 967.751 967.757 967.763 967.77 967.777 967.785 967.793 967.354 524.233 523.93 524.276
          967.489 967.814 967.816 967.819 967.822 967.825 967.828 967.831 967.834 967.836 967.838 967.839
          967.84 967.643 967.632 967.638 967.645 967.651 967.659 967.666 967.674 967.255 524.022 523.8
          524.047 967.447 967.695 967.697 967.699 967.702 967.705 967.707 967.71 967.712 967.714 967.716
          967.717 967.717 967.524 967.514 967.52 967.526 967.532 967.539 967.547 967.554 967.481 967.234
          967.193 967.277 967.494 967.576 967.578 967.58 967.582 967.584 967.587 967.589 967.591 967.593
          967.594 967.595 967.596 967.405 967.397 967.401 967.407 967.413 967.42 967.427 967.434 967.441
          967.447 967.451 967.453 967.455 967.456 967.458 967.46 967.462 967.464 967.466 967.469 967.471
          967.472 967.473 967.474 967.474 967.297 967.278 967.281 967.287 967.293 967.299 967.306 967.313
          967.32 967.326 967.33 967.333 967.334 967.336 967.338 967.34 967.342 967.344 967.346 967.348
          967.35 967.352 967.353 967.354 967.354
        </DataArray>
        <DataArray type="Float32" Name="saturation_l" NumberOfComponents="1" format="ascii">
          1 1 1 1 1 1 1 1 1 1 1 1
          1 1 1 1 1 1 1 1 1 1 1 1
          1 1 1 1 1 1 1 1 1 1 1 1
          1 1 1 1 1 1 1 1 1 1 1 1
          1 1 1 1 1 1 1 1 1 1 1 1
          1 1 1 1 1 1 1 1 1 1 1 1
          1 1 0.986242 1 1 1 1 1 1 1 1 1
          1 1 1 1 1 1 1 1 1 1 1 1
          1 1 0.999996 0.97249 1 1 1 1 1 1 1 1
          1 1 1 1 1 1 1 1 1 1 1 1
          1 1 1 0.999995 0.972486 1 1 1 1 1 1 1
          1 1 1 1 1 1 1 1 1 1 1 1
          1 1 1 1 0.999996 0.972482 1 1 1 1 1 1
          1 1 1 1 1 1 1 1 1 1 1 1
          1 1 1 1 1 1 0.986229 1 1 1 1 1
          1 1 1 1 1 1 1 1 1 1 1 1
          1 1 1 1 1 1 1 0.999999 1 1 1 1
          1 1 1 1 1 1 1 1 1 1 1 1
          1 1 1 1 1 1 1 1 1 1 1 1
          1 1 1 1 1 1 1 1 1 1 1 1
          1 1 1 1 1 1 1 1 1 1 1 1
          1 1 1 1 1 1 1 1 1 1 1 1
          1 1 1 1 1 1 1 1 1 1 1 1
          1 1 1 1 1 1 1 1 1 1 1 1
          1 1 1 1 1 1 1 1 1 1 1 1
          1 1 1 1 1 1 1 1 1 1 1 1
          1 1 1 1 1 1 1 1 1 1 1 1
          1 1 1 1 1 1 1 1 1 1 1 1
          1 1 1 1 1 1 1 1 1 1 1 1
          1 1 1 1 1 1 1 1 1 1 1 1
          1 1 1 1 1 1 1 1 1 1 1 1
          1 1 1 1 1 1 1 1 1 1 1 1
          1 1 1 1 1 1 1 1 1 1 1 1
          1 1 1 1 1 1 1 1 1 1 1 1
          1 1 1 1 1 1 1 1 1 1 1 1
          1 1 1 1 1
        </DataArray>
        <DataArray type="Float32" Name="saturation_g" NumberOfComponents="1" format="ascii">
          0 0 0 0 0 0 0 0 0 0 0 0
          0 0 0 0 0 0 0 0 0 0 0 0
          0 0 0 0 0 0 0 0 0 0 0 0
          0 0 0 0 0 0 0 0 0 0 0 0
          0 0 0 0 0 0 0 0 0 0 0 0
          0 0 0 0 0 0 0 0 0 0 0 0
          0 3.08888e-07 0.0137584 0 0 0 0 0 0 0 0 0
          0 0 0 0 0 0 0 0 0 0 0 0
          0 0 4.21884e-06 0.0275098 0 0 0 0 0 0 0 0
          0 0 0 0 0 0 0 0 0 0 0 0
          0 0 0 4.59661e-06 0.0275145 0 0 0 0 0 0 0
          0 0 0 0 0 0 0 0 0 0 0 0
          0 0 0 0 4.21025e-06 0.0275179 0 0 0 0 0 0
          0 0 0 0 0 0 0 0 0 0 0 0
          0 0 0 0 0 3.05366e-07 0.0137715 0 0 0 0 0
          0 0 0 0 0 0 0 0 0 0 0 0
          0 0 0 0 0 0 0 8.64781e-07 0 0 0 0
          0 0 0 0 0 0 0 0 0 0 0 0
          0 0 0 0 0 0 0 0 0 0 0 0
          0 0 0 0 0 0 0 0 0 0 0 0
          0 0 0 0 0 0 0 0 0 0 0 0
          0 0 0 0 0 0 0 0 0 0 0 0
          0 0 0 0 0 0 0 0 0 0 0 0
          0 0 0 0 0 0 0 0 0 0 0 0
          0 0 0 0 0 0 0 0 0 0 0 0
          0 0 0 0 0 0 0 0 0 0 0 0
          0 0 0 0 0 0 0 0 0 0 0 0
          0 0 0 0 0 0 0 0 0 0 0 0
          0 0 0 0 0 0 0 0 0 0 0 0
          0 0 0 0 0 0 0 0 0 0 0 0
          0 0 0 0 0 0 0 0 0 0 0 0
          0 0 0 0 0 0 0 0 0 0 0 0
          0 0 0 0 0 0 0 0 0 0 0 0
          0 0 0 0 0 0 0 0 0 0 0 0
          0 0 0 0 0 0 0 0 0 0 0 0
          0 0 0 0 0
        </DataArray>
        <DataArray type="Float32" Name="relativePerm_l" NumberOfComponents="1" format="ascii">
          1 1 1 1 1 1 1 1 1 1 1 1
          1 1 1 1 1 1 1 1 1 1 1 1
          1 1 1 1 1 1 1 1 1 1 1 1
          1 1 1 1 1 1 1 1 1 1 1 1
          1 1 1 1 1 1 1 1 1 1 1 1
          1 1 1 1 1 1 1 1 1 1 1 1
          1 0.999998 0.932962 1 1 1 1 1 1 1 1 1
          1 1 1 1 1 1 1 1 1 1 1 1
          1 1 0.999979 0.869384 1 1 1 1 1 1 1 1
          1 1 1 1 1 1 1 1 1 1 1 1
          1 1 1 0.999977 0.869364 1 1 1 1 1 1 1
          1 1 1 1 1 1 1 1 1 1 1 1
          1 1 1 1 0.999979 0.869348 1 1 1 1 1 1
          1 1 1 1 1 1 1 1 1 1 1 1
          1 1 1 1 1 0.999998 0.9329 1 1 1 1 1
          1 1 1 1 1 1 1 1 1 1 1 1
          1 1 1 1 1 1 1 0.999996 1 1 1 1
          1 1 1 1 1 1 1 1 1 1 1 1
          1 1 1 1 1 1 1 1 1 1 1 1
          1 1 1 1 1 1 1 1 1 1 1 1
          1 1 1 1 1 1 1 1 1 1 1 1
          1 1 1 1 1 1 1 1 1 1 1 1
          1 1 1 1 1 1 1 1 1 1 1 1
          1 1 1 1 1 1 1 1 1 1 1 1
          1 1 1 1 1 1 1 1 1 1 1 1
          1 1 1 1 1 1 1 1 1 1 1 1
          1 1 1 1 1 1 1 1 1 1 1 1
          1 1 1 1 1 1 1 1 1 1 1 1
          1 1 1 1 1 1 1 1 1 1 1 1
          1 1 1 1 1 1 1 1 1 1 1 1
          1 1 1 1 1 1 1 1 1 1 1 1
          1 1 1 1 1 1 1 1 1 1 1 1
          1 1 1 1 1 1 1 1 1 1 1 1
          1 1 1 1 1 1 1 1 1 1 1 1
          1 1 1 1 1 1 1 1 1 1 1 1
          1 1 1 1 1
        </DataArray>
        <DataArray type="Float32" Name="relativePerm_g" NumberOfComponents="1" format="ascii">
          0 0 0 0 0 0 0 0 0 0 0 0
          0 0 0 0 0 0 0 0 0 0 0 0
          0 0 0 0 0 0 0 0 0 0 0 0
          0 0 0 0 0 0 0 0 0 0 0 0
          0 0 0 0 0 0 0 0 0 0 0 0
          0 0 0 0 0 0 0 0 0 0 0 0
          0 1.15123e-19 1.0086e-05 0 0 0 0 0 0 0 0 0
          0 0 0 0 0 0 0 0 0 0 0 0
          0 0 2.93318e-16 7.99268e-05 0 0 0 0 0 0 0 0
          0 0 0 0 0 0 0 0 0 0 0 0
          0 0 0 3.79377e-16 7.99669e-05 0 0 0 0 0 0 0
          0 0 0 0 0 0 0 0 0 0 0 0
          0 0 0 0 2.91529e-16 7.99967e-05 0 0 0 0 0 0
          0 0 0 0 0 0 0 0 0 0 0 0
          0 0 0 0 0 1.1123e-19 1.01146e-05 0 0 0 0 0
          0 0 0 0 0 0 0 0 0 0 0 0
          0 0 0 0 0 0 0 2.52626e-18 0 0 0 0
          0 0 0 0 0 0 0 0 0 0 0 0
          0 0 0 0 0 0 0 0 0 0 0 0
          0 0 0 0 0 0 0 0 0 0 0 0
          0 0 0 0 0 0 0 0 0 0 0 0
          0 0 0 0 0 0 0 0 0 0 0 0
          0 0 0 0 0 0 0 0 0 0 0 0
          0 0 0 0 0 0 0 0 0 0 0 0
          0 0 0 0 0 0 0 0 0 0 0 0
          0 0 0 0 0 0 0 0 0 0 0 0
          0 0 0 0 0 0 0 0 0 0 0 0
          0 0 0 0 0 0 0 0 0 0 0 0
          0 0 0 0 0 0 0 0 0 0 0 0
          0 0 0 0 0 0 0 0 0 0 0 0
          0 0 0 0 0 0 0 0 0 0 0 0
          0 0 0 0 0 0 0 0 0 0 0 0
          0 0 0 0 0 0 0 0 0 0 0 0
          0 0 0 0 0 0 0 0 0 0 0 0
          0 0 0 0 0 0 0 0 0 0 0 0
          0 0 0 0 0
        </DataArray>
        <DataArray type="Float32" Name="porosity" NumberOfComponents="1" format="ascii">
          0.3 0.3 0.3 0.3 0.3 0.3 0.3 0.3 0.3 0.3 0.3 0.3
          0.3 0.3 0.3 0.3 0.3 0.3 0.3 0.3 0.3 0.3 0.3 0.3
          0.3 0.3 0.3 0.3 0.3 0.3 0.3 0.3 0.3 0.3 0.3 0.3
          0.3 0.3 0.3 0.3 0.3 0.3 0.3 0.3 0.3 0.3 0.3 0.3
          0.3 0.3 0.3 0.3 0.3 0.3 0.3 0.3 0.3 0.3 0.3 0.3
          0.3 0.3 0.3 0.3 0.3 0.3 0.3 0.3 0.3 0.3 0.3 0.3
          0.3 0.3 0.3 0.3 0.3 0.3 0.3 0.3 0.3 0.3 0.3 0.3
          0.3 0.3 0.3 0.3 0.3 0.3 0.3 0.3 0.3 0.3 0.3 0.3
          0.3 0.3 0.3 0.3 0.3 0.3 0.3 0.3 0.3 0.3 0.3 0.3
          0.3 0.3 0.3 0.3 0.3 0.3 0.3 0.3 0.3 0.3 0.3 0.3
          0.3 0.3 0.3 0.3 0.3 0.3 0.3 0.3 0.3 0.3 0.3 0.3
          0.3 0.3 0.3 0.3 0.3 0.3 0.3 0.3 0.3 0.3 0.3 0.3
          0.3 0.3 0.3 0.3 0.3 0.3 0.3 0.3 0.3 0.3 0.3 0.3
          0.3 0.3 0.3 0.3 0.3 0.3 0.3 0.3 0.3 0.3 0.3 0.3
          0.3 0.3 0.3 0.3 0.3 0.3 0.3 0.3 0.3 0.3 0.3 0.3
          0.3 0.3 0.3 0.3 0.3 0.3 0.3 0.3 0.3 0.3 0.3 0.3
          0.3 0.3 0.3 0.3 0.3 0.3 0.3 0.3 0.3 0.3 0.3 0.3
          0.3 0.3 0.3 0.3 0.3 0.3 0.3 0.3 0.3 0.3 0.3 0.3
          0.3 0.3 0.3 0.3 0.3 0.3 0.3 0.3 0.3 0.3 0.3 0.3
          0.3 0.3 0.3 0.3 0.3 0.3 0.3 0.3 0.3 0.3 0.3 0.3
          0.3 0.3 0.3 0.3 0.3 0.3 0.3 0.3 0.3 0.3 0.3 0.3
          0.3 0.3 0.3 0.3 0.3 0.3 0.3 0.3 0.3 0.3 0.3 0.3
          0.3 0.3 0.3 0.3 0.3 0.3 0.3 0.3 0.3 0.3 0.3 0.3
          0.3 0.3 0.3 0.3 0.3 0.3 0.3 0.3 0.3 0.3 0.3 0.3
          0.3 0.3 0.3 0.3 0.3 0.3 0.3 0.3 0.3 0.3 0.3 0.3
          0.3 0.3 0.3 0.3 0.3 0.3 0.3 0.3 0.3 0.3 0.3 0.3
          0.3 0.3 0.3 0.3 0.3 0.3 0.3 0.3 0.3 0.3 0.3 0.3
          0.3 0.3 0.3 0.3 0.3 0.3 0.3 0.3 0.3 0.3 0.3 0.3
          0.3 0.3 0.3 0.3 0.3 0.3 0.3 0.3 0.3 0.3 0.3 0.3
          0.3 0.3 0.3 0.3 0.3 0.3 0.3 0.3 0.3 0.3 0.3 0.3
          0.3 0.3 0.3 0.3 0.3 0.3 0.3 0.3 0.3 0.3 0.3 0.3
          0.3 0.3 0.3 0.3 0.3 0.3 0.3 0.3 0.3 0.3 0.3 0.3
          0.3 0.3 0.3 0.3 0.3 0.3 0.3 0.3 0.3 0.3 0.3 0.3
          0.3 0.3 0.3 0.3 0.3 0.3 0.3 0.3 0.3 0.3 0.3 0.3
          0.3 0.3 0.3 0.3 0.3 0.3 0.3 0.3 0.3 0.3 0.3 0.3
          0.3 0.3 0.3 0.3 0.3
        </DataArray>
        <DataArray type="Float32" Name="temperature" NumberOfComponents="1" format="ascii">
          293.15 293.15 293.102 293.15 293.15 293.15 293.15 293.15 293.15 293.15 293.15 293.15
          293.15 293.15 293.15 293.15 293.15 293.15 293.15 293.15 293.15 293.15 293.15 293.15
          293.15 293.15 293.15 293.15 293.15 293.15 293.15 293.15 293.15 293.15 293.15 293.15
          293.15 293.15 293.15 293.15 293.15 293.15 293.15 293.15 293.15 293.15 293.15 293.15
          293.15 293.15 293.105 293.15 293.15 293.15 293.15 293.15 293.15 293.15 293.171 293.212
          293.233 293.212 293.171 293.15 293.15 293.15 293.15 293.15 293.15 293.15 293.15 293.15
          293.15 293.15 293.15 293.105 293.15 293.15 293.15 293.15 293.15 293.15 293.15 293.267
          392.905 392.919 392.403 293.212 293.15 293.15 293.15 293.15 293.15 293.15 293.15 293.15
          293.15 293.15 293.15 293.15 293.105 293.15 293.15 293.15 293.15 293.15 293.15 293.15
          293.381 393.065 393.149 392.757 293.233 293.15 293.15 293.15 293.15 293.15 293.15 293.15
          293.15 293.15 293.15 293.15 293.15 293.105 293.15 293.15 293.15 293.15 293.15 293.15
          293.151 293.434 393.066 393.15 392.819 293.233 293.15 293.15 293.15 293.15 293.15 293.15
          293.15 293.15 293.15 293.15 293.15 293.15 293.105 293.15 293.15 293.15 293.15 293.15
          293.15 293.151 293.473 393.066 393.15 392.867 293.233 293.15 293.15 293.15 293.15 293.15
          293.15 293.15 293.15 293.15 293.15 293.15 293.15 293.105 293.15 293.15 293.15 293.15
          293.15 293.15 293.151 293.537 393.066 393.15 392.929 293.233 293.15 293.15 293.15 293.15
          293.15 293.15 293.15 293.15 293.15 293.15 293.15 293.15 293.105 293.15 293.15 293.15
          293.15 293.15 293.15 293.151 293.677 393.066 393.15 393.021 293.236 293.15 293.15 293.15
          293.15 293.15 293.15 293.15 293.15 293.15 293.15 293.15 293.15 293.145 293.15 293.15
          293.15 293.15 293.15 293.15 293.15 293.278 393.066 393.15 393.062 293.234 293.15 293.15
          293.15 293.15 293.15 293.15 293.15 293.15 293.15 293.15 293.15 293.15 293.146 293.15
          293.15 293.15 293.15 293.15 293.15 293.15 293.266 393.065 393.15 393.057 293.233 293.15
          293.15 293.15 293.15 293.15 293.15 293.15 293.15 293.15 293.15 293.15 293.15 293.146
          293.15 293.15 293.15 293.15 293.15 293.15 293.15 293.263 393.065 393.15 393.056 293.233
          293.15 293.15 293.15 293.15 293.15 293.15 293.15 293.15 293.15 293.15 293.15 293.15
          293.146 293.15 293.15 293.15 293.15 293.15 293.15 293.15 293.266 393.065 393.15 393.058
          293.234 293.15 293.15 293.15 293.15 293.15 293.15 293.15 293.15 293.15 293.15 293.15
          293.15 293.146 293.15 293.15 293.15 293.15 293.15 293.15 293.15 293.261 393.002 393.065
          393 293.214 293.15 293.15 293.15 293.15 293.15 293.15 293.15 293.15 293.15 293.15
          293.15 293.15 293.146 293.15 293.15 293.15 293.15 293.15 293.15 293.15 293.171 293.237
          293.248 293.227 293.171 293.15 293.15 293.15 293.15 293.15 293.15 293.15 293.15 293.15
          293.15 293.15 293.15 293.146 293.15 293.15 293.15 293.15 293.15 293.15 293.15 293.15
          293.15 293.15 293.15 293.15 293.15 293.15 293.15 293.15 293.15 293.15 293.15 293.15