<?xml version="1.0"?>
<VTKFile type="UnstructuredGrid" version="0.1" byte_order="LittleEndian">
  <UnstructuredGrid>
    <Piece NumberOfCells="384" NumberOfPoints="425">
      <CellData Scalars="pressure_l">
        <DataArray type="Float32" Name="pressure_l" NumberOfComponents="1" format="ascii">
          2.63098e+07 2.63111e+07 2.63123e+07 2.63133e+07 2.63143e+07 2.63151e+07 2.63158e+07 2.63163e+07 2.63167e+07 2.63172e+07 2.6318e+07 2.63191e+07
          2.63207e+07 2.63224e+07 2.6324e+07 2.63256e+07 2.63271e+07 2.63286e+07 2.63301e+07 2.63315e+07 2.63329e+07 2.63342e+07 2.63353e+07 2.6336e+07
          2.62835e+07 2.62847e+07 2.62859e+07 2.62869e+07 2.62879e+07 2.62887e+07 2.62894e+07 2.62899e+07 2.629e+07 2.62904e+07 2.62911e+07 2.62922e+07
          2.62941e+07 2.62959e+07 2.62976e+07 2.62992e+07 2.63007e+07 2.63022e+07 2.63036e+07 2.63051e+07 2.63065e+07 2.63079e+07 2.63092e+07 2.63102e+07
          2.62572e+07 2.62584e+07 2.62596e+07 2.62606e+07 2.62617e+07 2.62626e+07 2.62633e+07 2.62639e+07 2.62639e+07 2.62642e+07 2.62646e+07 2.62653e+07
          2.62677e+07 2.62695e+07 2.62712e+07 2.62728e+07 2.62743e+07 2.62758e+07 2.62772e+07 2.62787e+07 2.62802e+07 2.62817e+07 2.62834e+07 2.62855e+07
          2.6231e+07 2.62321e+07 2.62333e+07 2.62344e+07 2.62355e+07 2.62365e+07 2.62375e+07 2.62383e+07 2.62385e+07 2.62389e+07 2.62393e+07 2.62398e+07
          2.62417e+07 2.62434e+07 2.6245e+07 2.62465e+07 2.62479e+07 2.62493e+07 2.62508e+07 2.62522e+07 2.62537e+07 2.62554e+07 2.62572e+07 2.62597e+07
          2.62047e+07 2.62059e+07 2.62071e+07 2.62083e+07 2.62094e+07 2.62106e+07 2.62117e+07 2.62128e+07 2.62131e+07 2.62135e+07 2.62139e+07 2.62144e+07
          2.62159e+07 2.62174e+07 2.62188e+07 2.62202e+07 2.62216e+07 2.62229e+07 2.62243e+07 2.62257e+07 2.62272e+07 2.62288e+07 2.62306e+07 2.62331e+07
          2.61785e+07 2.61797e+07 2.61809e+07 2.61821e+07 2.61834e+07 2.61846e+07 2.61859e+07 2.61872e+07 2.61876e+07 2.61881e+07 2.61885e+07 2.61889e+07
          2.61902e+07 2.61914e+07 2.61927e+07 2.6194e+07 2.61952e+07 2.61965e+07 2.61978e+07 2.61991e+07 2.62005e+07 2.62019e+07 2.62036e+07 2.62057e+07
          2.61523e+07 2.61535e+07 2.61547e+07 2.6156e+07 2.61573e+07 2.61587e+07 2.61602e+07 2.61617e+07 2.61622e+07 2.61626e+07 2.6163e+07 2.61634e+07
          2.61644e+07 2.61655e+07 2.61666e+07 2.61677e+07 2.61689e+07 2.61701e+07 2.61713e+07 2.61725e+07 2.61738e+07 2.6175e+07 2.61761e+07 2.6177e+07
          2.6126e+07 2.61272e+07 2.61284e+07 2.61298e+07 2.61312e+07 2.61327e+07 2.61343e+07 2.61361e+07 2.61367e+07 2.61373e+07 2.61377e+07 2.6138e+07
          2.61387e+07 2.61395e+07 2.61404e+07 2.61414e+07 2.61425e+07 2.61436e+07 2.61448e+07 2.61459e+07 2.6147e+07 2.6148e+07 2.61489e+07 2.61494e+07
          2.60997e+07 2.61009e+07 2.61021e+07 2.61035e+07 2.61049e+07 2.61065e+07 2.61083e+07 2.61105e+07 2.61114e+07 2.6112e+07 2.61124e+07 2.61127e+07
          2.61128e+07 2.61133e+07 2.61141e+07 2.61151e+07 2.61161e+07 2.61172e+07 2.61183e+07 2.61193e+07 2.61204e+07 2.61213e+07 2.6122e+07 2.61224e+07
          2.60735e+07 2.60747e+07 2.6076e+07 2.60774e+07 2.60789e+07 2.60806e+07 2.60825e+07 2.60848e+07 2.60857e+07 2.60863e+07 2.60868e+07 2.6087e+07
          2.6087e+07 2.60874e+07 2.6088e+07 2.60889e+07 2.60898e+07 2.60907e+07 2.60917e+07 2.60927e+07 2.60936e+07 2.60943e+07 2.60949e+07 2.60953e+07
          2.60474e+07 2.60487e+07 2.60501e+07 2.60516e+07 2.60532e+07 2.6055e+07 2.60569e+07 2.6059e+07 2.60597e+07 2.60603e+07 2.60607e+07 2.60609e+07
          2.60612e+07 2.60616e+07 2.60622e+07 2.60628e+07 2.60636e+07 2.60643e+07 2.60651e+07 2.60659e+07 2.60666e+07 2.60672e+07 2.60676e+07 2.60679e+07
          2.60213e+07 2.60227e+07 2.60241e+07 2.60256e+07 2.60273e+07 2.60291e+07 2.60311e+07 2.60332e+07 2.60338e+07 2.60344e+07 2.60348e+07 2.6035e+07
          2.60354e+07 2.60358e+07 2.60362e+07 2.60367e+07 2.60373e+07 2.60379e+07 2.60386e+07 2.60392e+07 2.60398e+07 2.60402e+07 2.60406e+07 2.60408e+07
          2.59951e+07 2.59965e+07 2.5998e+07 2.59996e+07 2.60013e+07 2.60031e+07 2.60051e+07 2.60073e+07 2.6008e+07 2.60087e+07 2.60091e+07 2.60093e+07
          2.60096e+07 2.60098e+07 2.60101e+07 2.60105e+07 2.6011e+07 2.60115e+07 2.6012e+07 2.60125e+07 2.6013e+07 2.60134e+07 2.60137e+07 2.60138e+07
          2.59689e+07 2.59703e+07 2.59718e+07 2.59734e+07 2.59751e+07 2.5977e+07 2.5979e+07 2.59814e+07 2.59824e+07 2.59831e+07 2.59836e+07 2.59838e+07
          2.59837e+07 2.59838e+07 2.59839e+07 2.59842e+07 2.59846e+07 2.59851e+07 2.59855e+07 2.59859e+07 2.59863e+07 2.59866e+07 2.59869e+07 2.5987e+07
          2.59426e+07 2.5944e+07 2.59455e+07 2.59471e+07 2.59488e+07 2.59506e+07 2.59525e+07 2.59545e+07 2.59562e+07 2.59572e+07 2.59577e+07 2.59579e+07
          2.59576e+07 2.59575e+07 2.59577e+07 2.59579e+07 2.59582e+07 2.59586e+07 2.5959e+07 2.59594e+07 2.59597e+07 2.596e+07 2.59602e+07 2.59603e+07
          2.59163e+07 2.59177e+07 2.59192e+07 2.59207e+07 2.59224e+07 2.59242e+07 2.5926e+07 2.59277e+07 2.59292e+07 2.59303e+07 2.59309e+07 2.59311e+07
          2.59311e+07 2.59311e+07 2.59313e+07 2.59315e+07 2.59318e+07 2.59321e+07 2.59325e+07 2.59329e+07 2.59332e+07 2.59334e+07 2.59336e+07 2.59337e+07
        </DataArray>
        <DataArray type="Float32" Name="pressure_g" NumberOfComponents="1" format="ascii">
          2.63148e+07 2.63161e+07 2.63173e+07 2.63183e+07 2.63193e+07 2.63201e+07 2.63208e+07 2.63213e+07 2.63217e+07 2.63222e+07 2.6323e+07 2.63241e+07
          2.63257e+07 2.63274e+07 2.6329e+07 2.63306e+07 2.63321e+07 2.63336e+07 2.63351e+07 2.63365e+07 2.63379e+07 2.63392e+07 2.63403e+07 2.6341e+07
          2.62885e+07 2.62897e+07 2.62909e+07 2.62919e+07 2.62929e+07 2.62937e+07 2.62944e+07 2.62949e+07 2.6295e+07 2.62954e+07 2.62961e+07 2.62972e+07
          2.62991e+07 2.63009e+07 2.63026e+07 2.63042e+07 2.63057e+07 2.63072e+07 2.63086e+07 2.63101e+07 2.63115e+07 2.63129e+07 2.63142e+07 2.63152e+07
          2.62622e+07 2.62634e+07 2.62646e+07 2.62656e+07 2.62667e+07 2.62676e+07 2.62683e+07 2.62689e+07 2.62689e+07 2.62692e+07 2.62696e+07 2.62703e+07
          2.62727e+07 2.62745e+07 2.62762e+07 2.62778e+07 2.62793e+07 2.62808e+07 2.62822e+07 2.62837e+07 2.62852e+07 2.62867e+07 2.62884e+07 2.62906e+07
          2.6236e+07 2.62371e+07 2.62383e+07 2.62394e+07 2.62405e+07 2.62415e+07 2.62425e+07 2.62433e+07 2.62435e+07 2.62439e+07 2.62443e+07 2.62448e+07
          2.62467e+07 2.62484e+07 2.625e+07 2.62515e+07 2.62529e+07 2.62543e+07 2.62558e+07 2.62572e+07 2.62587e+07 2.62604e+07 2.62622e+07 2.62648e+07
          2.62097e+07 2.62109e+07 2.62121e+07 2.62133e+07 2.62144e+07 2.62156e+07 2.62167e+07 2.62178e+07 2.62181e+07 2.62185e+07 2.62189e+07 2.62194e+07
          2.62209e+07 2.62224e+07 2.62238e+07 2.62252e+07 2.62266e+07 2.62279e+07 2.62293e+07 2.62307e+07 2.62322e+07 2.62338e+07 2.62356e+07 2.62382e+07
          2.61835e+07 2.61847e+07 2.61859e+07 2.61871e+07 2.61884e+07 2.61896e+07 2.61909e+07 2.61922e+07 2.61926e+07 2.61931e+07 2.61935e+07 2.61939e+07
          2.61952e+07 2.61964e+07 2.61977e+07 2.6199e+07 2.62002e+07 2.62015e+07 2.62028e+07 2.62041e+07 2.62055e+07 2.62069e+07 2.62086e+07 2.62107e+07
          2.61573e+07 2.61585e+07 2.61597e+07 2.6161e+07 2.61623e+07 2.61637e+07 2.61652e+07 2.61667e+07 2.61672e+07 2.61676e+07 2.6168e+07 2.61684e+07
          2.61694e+07 2.61705e+07 2.61716e+07 2.61727e+07 2.61739e+07 2.61751e+07 2.61763e+07 2.61775e+07 2.61788e+07 2.618e+07 2.61811e+07 2.6182e+07
          2.6131e+07 2.61322e+07 2.61334e+07 2.61348e+07 2.61362e+07 2.61377e+07 2.61393e+07 2.61411e+07 2.61417e+07 2.61423e+07 2.61427e+07 2.6143e+07
          2.61437e+07 2.61445e+07 2.61454e+07 2.61464e+07 2.61475e+07 2.61486e+07 2.61498e+07 2.61509e+07 2.6152e+07 2.6153e+07 2.61539e+07 2.61544e+07
          2.61047e+07 2.61059e+07 2.61071e+07 2.61085e+07 2.61099e+07 2.61115e+07 2.61133e+07 2.61155e+07 2.61164e+07 2.6117e+07 2.61174e+07 2.61177e+07
          2.61178e+07 2.61183e+07 2.61191e+07 2.61201e+07 2.61211e+07 2.61222e+07 2.61233e+07 2.61243e+07 2.61254e+07 2.61263e+07 2.6127e+07 2.61274e+07
          2.60835e+07 2.60847e+07 2.6086e+07 2.60874e+07 2.60889e+07 2.60906e+07 2.60925e+07 2.60948e+07 2.60957e+07 2.60963e+07 2.60968e+07 2.6097e+07
          2.6097e+07 2.60974e+07 2.6098e+07 2.60989e+07 2.60998e+07 2.61007e+07 2.61017e+07 2.61027e+07 2.61036e+07 2.61043e+07 2.61049e+07 2.61053e+07
          2.60574e+07 2.60587e+07 2.60601e+07 2.60616e+07 2.60632e+07 2.6065e+07 2.60669e+07 2.6069e+07 2.60697e+07 2.60703e+07 2.60707e+07 2.60709e+07
          2.60712e+07 2.60716e+07 2.60722e+07 2.60728e+07 2.60736e+07 2.60743e+07 2.60751e+07 2.60759e+07 2.60766e+07 2.60772e+07 2.60776e+07 2.60779e+07
          2.60313e+07 2.60327e+07 2.60341e+07 2.60356e+07 2.60373e+07 2.60391e+07 2.60411e+07 2.60432e+07 2.60438e+07 2.60444e+07 2.60448e+07 2.6045e+07
          2.60454e+07 2.60458e+07 2.60462e+07 2.60467e+07 2.60473e+07 2.60479e+07 2.60486e+07 2.60492e+07 2.60498e+07 2.60502e+07 2.60506e+07 2.60508e+07
          2.60051e+07 2.60065e+07 2.6008e+07 2.60096e+07 2.60113e+07 2.60131e+07 2.60151e+07 2.60173e+07 2.6018e+07 2.60187e+07 2.60191e+07 2.60193e+07
          2.60196e+07 2.60198e+07 2.60201e+07 2.60205e+07 2.6021e+07 2.60215e+07 2.6022e+07 2.60225e+07 2.6023e+07 2.60234e+07 2.60237e+07 2.60238e+07
          2.59789e+07 2.59803e+07 2.59818e+07 2.59834e+07 2.59851e+07 2.5987e+07 2.5989e+07 2.59914e+07 2.59924e+07 2.59931e+07 2.59936e+07 2.59938e+07
          2.59937e+07 2.59938e+07 2.59939e+07 2.59942e+07 2.59946e+07 2.59951e+07 2.59955e+07 2.59959e+07 2.59963e+07 2.59966e+07 2.59969e+07 2.5997e+07
          2.59526e+07 2.5954e+07 2.59555e+07 2.59571e+07 2.59588e+07 2.59606e+07 2.59625e+07 2.59645e+07 2.59662e+07 2.59672e+07 2.59677e+07 2.59679e+07
          2.59676e+07 2.59675e+07 2.59677e+07 2.59679e+07 2.59682e+07 2.59686e+07 2.5969e+07 2.59694e+07 2.59697e+07 2.597e+07 2.59702e+07 2.59703e+07
          2.59263e+07 2.59277e+07 2.59292e+07 2.59307e+07 2.59324e+07 2.59342e+07 2.5936e+07 2.59377e+07 2.59392e+07 2.59403e+07 2.59409e+07 2.59411e+07
          2.59411e+07 2.59411e+07 2.59413e+07 2.59415e+07 2.59418e+07 2.59421e+07 2.59425e+07 2.59429e+07 2.59432e+07 2.59434e+07 2.59436e+07 2.59437e+07
        </DataArray>
        <DataArray type="Float32" Name="density_l" NumberOfComponents="1" format="ascii">
          1080.19 1080.19 1080.19 1080.19 1080.19 1080.19 1080.19 1080.19 1080.19 1080.19 1080.19 1080.19
          1080.19 1080.19 1080.19 1080.19 1080.19 1080.19 1080.19 1080.19 1080.2 1080.2 1080.2 1080.2
          1080.17 1080.18 1080.18 1080.18 1080.18 1080.18 1080.18 1080.18 1080.15 1080.15 1080.15 1080.15
          1080.18 1080.18 1080.18 1080.18 1080.18 1080.18 1080.18 1080.18 1080.18 1080.18 1080.19 1080.19
          1080.16 1080.16 1080.16 1080.16 1080.17 1080.17 1080.17 1080.14 1017.28 1017.22 1017.25 1017.74
          1080.14 1080.17 1080.17 1080.17 1080.17 1080.17 1080.17 1080.17 1080.17 1080.17 1080.17 1080.18
          1080.15 1080.15 1080.15 1080.15 1080.15 1080.15 1080.16 1080.09 1017.13 1017.05 1017.05 1017.4
          1080.13 1080.16 1080.16 1080.16 1080.16 1080.16 1080.16 1080.16 1080.16 1080.16 1080.16 1080.16
          1080.14 1080.14 1080.14 1080.14 1080.14 1080.14 1080.14 1080.07 1017.12 1017.04 1017.04 1017.34
          1080.12 1080.15 1080.15 1080.15 1080.15 1080.15 1080.15 1080.15 1080.15 1080.15 1080.15 1080.15
          1080.13 1080.13 1080.13 1080.13 1080.13 1080.13 1080.13 1080.05 1017.11 1017.03 1017.03 1017.29
          1080.11 1080.14 1080.14 1080.14 1080.14 1080.14 1080.14 1080.14 1080.14 1080.14 1080.14 1080.14
          1080.12 1080.12 1080.12 1080.12 1080.12 1080.12 1080.12 1080.02 1017.1 1017.02 1017.02 1017.25
          1080.1 1080.12 1080.13 1080.13 1080.13 1080.13 1080.13 1080.13 1080.13 1080.13 1080.13 1080.13
          1080.11 1080.11 1080.11 1080.11 1080.11 1080.11 1080.11 1079.99 1017.09 1017.01 1017.01 1017.18
          1080.09 1080.11 1080.11 1080.11 1080.12 1080.12 1080.12 1080.12 1080.12 1080.12 1080.12 1080.12
          1080.1 1080.1 1080.1 1080.1 1080.1 1080.1 1080.1 1079.94 1017.08 1017 1017.01 1017.09
          1080.08 1080.1 1080.1 1080.1 1080.1 1080.1 1080.11 1080.11 1080.11 1080.11 1080.11 1080.11
          1080.09 1080.09 1080.09 1080.09 1080.09 1080.09 1080.09 1080.05 1017.07 1017 1017 1017.07
          1080.07 1080.09 1080.09 1080.09 1080.09 1080.09 1080.09 1080.09 1080.09 1080.09 1080.1 1080.1
          1080.08 1080.08 1080.08 1080.08 1080.08 1080.08 1080.08 1080.04 1017.06 1016.99 1016.99 1017.07
          1080.06 1080.08 1080.08 1080.08 1080.08 1080.08 1080.08 1080.08 1080.08 1080.08 1080.08 1080.08
          1080.06 1080.06 1080.07 1080.07 1080.07 1080.07 1080.07 1080.03 1017.05 1016.98 1016.98 1017.06
          1080.04 1080.07 1080.07 1080.07 1080.07 1080.07 1080.07 1080.07 1080.07 1080.07 1080.07 1080.07
          1080.05 1080.05 1080.05 1080.06 1080.06 1080.06 1080.06 1080.02 1017.04 1016.97 1016.97 1017.05
          1080.03 1080.06 1080.06 1080.06 1080.06 1080.06 1080.06 1080.06 1080.06 1080.06 1080.06 1080.06
          1080.04 1080.04 1080.04 1080.04 1080.04 1080.05 1080.05 1080.01 1017.11 1017.03 1017.03 1017.11
          1080.02 1080.05 1080.05 1080.05 1080.05 1080.05 1080.05 1080.05 1080.05 1080.05 1080.05 1080.05
          1080.03 1080.03 1080.03 1080.03 1080.03 1080.03 1080.04 1080.04 1080.01 1080.01 1080.01 1080.01
          1080.04 1080.04 1080.04 1080.04 1080.04 1080.04 1080.04 1080.04 1080.04 1080.04 1080.04 1080.04
          1080.02 1080.02 1080.02 1080.02 1080.02 1080.02 1080.02 1080.03 1080.03 1080.03 1080.03 1080.03
          1080.03 1080.03 1080.03 1080.03 1080.03 1080.03 1080.03 1080.03 1080.03 1080.03 1080.03 1080.03
        </DataArray>
        <DataArray type="Float32" Name="density_g" NumberOfComponents="1" format="ascii">
          969.089 969.094 969.099 969.104 969.108 969.112 969.115 969.117 969.119 969.121 969.125 969.13
          969.137 969.145 969.152 969.159 969.166 969.172 969.179 969.185 969.191 969.197 969.202 969.205
          968.97 968.975 968.98 968.985 968.989 968.993 968.996 968.998 968.679 968.68 968.684 968.69
          969.017 969.025 969.033 969.04 969.047 969.053 969.06 969.066 969.073 969.079 969.085 969.089
          968.851 968.857 968.862 968.867 968.871 968.875 968.878 968.534 528.913 528.662 528.808 530.874
          968.579 968.906 968.914 968.921 968.928 968.934 968.941 968.947 968.954 968.961 968.968 968.978
          968.733 968.738 968.743 968.748 968.753 968.758 968.761 967.98 527.885 527.577 527.588 529.042
          968.461 968.788 968.795 968.802 968.809 968.815 968.821 968.828 968.835 968.842 968.85 968.862
          968.614 968.62 968.625 968.63 968.636 968.641 968.644 967.67 527.448 527.142 527.152 528.403
          968.344 968.671 968.677 968.684 968.69 968.696 968.702 968.708 968.715 968.722 968.73 968.742
          968.496 968.502 968.507 968.512 968.518 968.524 968.527 967.415 527.012 526.708 526.716 527.807
          968.228 968.554 968.56 968.565 968.571 968.577 968.583 968.589 968.595 968.601 968.608 968.618
          968.378 968.383 968.389 968.394 968.4 968.407 968.411 967.149 526.577 526.273 526.281 527.208
          968.111 968.437 968.442 968.447 968.452 968.458 968.463 968.468 968.474 968.479 968.484 968.489
          968.259 968.265 968.27 968.276 968.282 968.289 968.293 966.799 526.142 525.839 525.847 526.561
          967.995 968.319 968.324 968.328 968.333 968.338 968.343 968.348 968.353 968.358 968.362 968.364
          968.14 968.145 968.151 968.157 968.164 968.171 968.173 966.086 525.706 525.405 525.413 525.776
          967.859 968.201 968.205 968.209 968.214 968.219 968.224 968.229 968.233 968.237 968.24 968.242
          968.044 968.049 968.055 968.061 968.068 968.076 968.084 967.591 525.349 525.048 525.055 525.371
          967.777 968.106 968.109 968.113 968.117 968.121 968.126 968.13 968.134 968.138 968.14 968.142
          967.925 967.931 967.937 967.944 967.951 967.959 967.968 967.522 524.9 524.597 524.604 524.939
          967.665 967.989 967.992 967.995 967.998 968.002 968.005 968.009 968.012 968.014 968.016 968.018
          967.807 967.813 967.819 967.826 967.834 967.842 967.85 967.412 524.452 524.15 524.157 524.495
          967.547 967.872 967.874 967.876 967.879 967.882 967.885 967.887 967.89 967.892 967.894 967.894
          967.688 967.694 967.701 967.708 967.716 967.724 967.733 967.28 524.006 523.705 523.712 524.043
          967.429 967.754 967.755 967.757 967.759 967.762 967.764 967.766 967.768 967.77 967.771 967.772
          967.569 967.575 967.582 967.589 967.597 967.605 967.614 967.101 523.875 523.576 523.584 523.9
          967.292 967.635 967.637 967.638 967.64 967.642 967.644 967.646 967.647 967.649 967.65 967.65
          967.45 967.456 967.463 967.47 967.477 967.485 967.494 967.502 967.106 967.141 967.151 967.148
          967.516 967.517 967.517 967.518 967.52 967.521 967.523 967.525 967.526 967.528 967.529 967.529
          967.33 967.336 967.343 967.35 967.357 967.365 967.373 967.381 967.388 967.393 967.395 967.396
          967.397 967.397 967.397 967.398 967.4 967.401 967.403 967.404 967.406 967.407 967.408 967.408
        </DataArray>
        <DataArray type="Float32" Name="saturation_l" NumberOfComponents="1" format="ascii">
          1 1 1 1 1 1 1 1 1 1 1 1
          1 1 1 1 1 1 1 1 1 1 1 1
          1 1 1 1 1 1 1 1 1 1 1 1
          1 1 1 1 1 1 1 1 1 1 1 1
          1 1 1 1 1 1 1 1 1 1 1 1
          1 1 1 1 1 1 1 1 1 1 1 0.986241
          1 1 1 1 1 1 1 1 1 1 1 1
          1 1 1 1 1 1 1 1 1 1 1 0.986239
          1 1 1 1 1 1 1 1 1 1 1 1
          1 1 1 1 1 1 1 1 1 1 1 0.986237
          1 1 1 1 1 1 1 1 1 1 1 1
          1 1 1 1 1 1 1 1 1 1 1 0.986235
          1 1 1 1 1 1 1 1 1 1 1 1
          1 1 1 1 1 1 1 1 1 1 1 0.999999
          1 1 1 1 1 1 1 1 1 1 1 1
          1 1 1 1 1 1 1 1 1 1 1 1
          1 1 1 1 1 1 1 1 1 1 1 1
          1 1 1 1 1 1 1 1 1 1 1 1
          1 1 1 1 1 1 1 1 1 1 1 1
          1 1 1 1 1 1 1 1 1 1 1 1
          1 1 1 1 1 1 1 1 1 1 1 1
          1 1 1 1 1 1 1 1 1 1 1 1
          1 1 1 1 1 1 1 1 1 1 1 1
          1 1 1 1 1 1 1 1 1 1 1 1
          1 1 1 1 1 1 1 1 1 1 1 1
          1 1 1 1 1 1 1 1 1 1 1 1
          1 1 1 1 1 1 1 1 1 1 1 1
          1 1 1 1 1 1 1 1 1 1 1 1
          1 1 1 1 1 1 1 1 1 1 1 1
          1 1 1 1 1 1 1 1 1 1 1 1
          1 1 1 1 1 1 1 1 1 1 1 1
          1 1 1 1 1 1 1 1 1 1 1 1
        </DataArray>
        <DataArray type="Float32" Name="saturation_g" NumberOfComponents="1" format="ascii">
          0 0 0 0 0 0 0 0 0 0 0 0
          0 0 0 0 0 0 0 0 0 0 0 0
          0 0 0 0 0 0 0 0 0 0 0 0
          0 0 0 0 0 0 0 0 0 0 0 0
          0 0 0 0 0 0 0 0 0 0 0 0
          0 0 0 0 0 0 0 0 0 0 4.09865e-07 0.0137594
          0 0 0 0 0 0 0 0 0 0 0 0
          0 0 0 0 0 0 0 0 0 0 4.72823e-07 0.0137612
          0 0 0 0 0 0 0 0 0 0 0 0
          0 0 0 0 0 0 0 0 0 0 4.70476e-07 0.0137629
          0 0 0 0 0 0 0 0 0 0 0 0
          0 0 0 0 0 0 0 0 0 0 4.02101e-07 0.0137647
          0 0 0 0 0 0 0 0 0 0 0 0
          0 0 0 0 0 0 0 0 0 0 0 9.24394e-07
          0 0 0 0 0 0 0 0 0 0 0 0
          0 0 0 0 0 0 0 0 0 0 0 0
          0 0 0 0 0 0 0 0 0 0 0 0
          0 0 0 0 0 0 0 0 0 0 0 0
          0 0 0 0 0 0 0 0 0 0 0 0
          0 0 0 0 0 0 0 0 0 0 0 0
          0 0 0 0 0 0 0 0 0 0 0 0
          0 0 0 0 0 0 0 0 0 0 0 0
          0 0 0 0 0 0 0 0 0 0 0 0
          0 0 0 0 0 0 0 0 0 0 0 0
          0 0 0 0 0 0 0 0 0 0 0 0
          0 0 0 0 0 0 0 0 0 0 0 0
          0 0 0 0 0 0 0 0 0 0 0 0
          0 0 0 0 0 0 0 0 0 0 0 0
          0 0 0 0 0 0 0 0 0 0 0 0
          0 0 0 0 0 0 0 0 0 0 0 0
          0 0 0 0 0 0 0 0 0 0 0 0
          0 0 0 0 0 0 0 0 0 0 0 0
        </DataArray>
        <DataArray type="Float32" Name="relativePerm_l" NumberOfComponents="1" format="ascii">
          1 1 1 1 1 1 1 1 1 1 1 1
          1 1 1 1 1 1 1 1 1 1 1 1
          1 1 1 1 1 1 1 1 1 1 1 1
          1 1 1 1 1 1 1 1 1 1 1 1
          1 1 1 1 1 1 1 1 1 1 1 1
          1 1 1 1 1 1 1 1 1 1 0.999998 0.932958
          1 1 1 1 1 1 1 1 1 1 1 1
          1 1 1 1 1 1 1 1 1 1 0.999998 0.932949
          1 1 1 1 1 1 1 1 1 1 1 1
          1 1 1 1 1 1 1 1 1 1 0.999998 0.932941
          1 1 1 1 1 1 1 1 1 1 1 1
          1 1 1 1 1 1 1 1 1 1 0.999998 0.932933
          1 1 1 1 1 1 1 1 1 1 1 1
          1 1 1 1 1 1 1 1 1 1 1 0.999995
          1 1 1 1 1 1 1 1 1 1 1 1
          1 1 1 1 1 1 1 1 1 1 1 1
          1 1 1 1 1 1 1 1 1 1 1 1
          1 1 1 1 1 1 1 1 1 1 1 1
          1 1 1 1 1 1 1 1 1 1 1 1
          1 1 1 1 1 1 1 1 1 1 1 1
          1 1 1 1 1 1 1 1 1 1 1 1
          1 1 1 1 1 1 1 1 1 1 1 1
          1 1 1 1 1 1 1 1 1 1 1 1
          1 1 1 1 1 1 1 1 1 1 1 1
          1 1 1 1 1 1 1 1 1 1 1 1
          1 1 1 1 1 1 1 1 1 1 1 1
          1 1 1 1 1 1 1 1 1 1 1 1
          1 1 1 1 1 1 1 1 1 1 1 1
          1 1 1 1 1 1 1 1 1 1 1 1
          1 1 1 1 1 1 1 1 1 1 1 1
          1 1 1 1 1 1 1 1 1 1 1 1
          1 1 1 1 1 1 1 1 1 1 1 1
        </DataArray>
        <DataArray type="Float32" Name="relativePerm_g" NumberOfComponents="1" format="ascii">
          0 0 0 0 0 0 0 0 0 0 0 0
          0 0 0 0 0 0 0 0 0 0 0 0
          0 0 0 0 0 0 0 0 0 0 0 0
          0 0 0 0 0 0 0 0 0 0 0 0
          0 0 0 0 0 0 0 0 0 0 0 0
          0 0 0 0 0 0 0 0 0 0 2.68957e-19 1.00881e-05
          0 0 0 0 0 0 0 0 0 0 0 0
          0 0 0 0 0 0 0 0 0 0 4.12911e-19 1.00921e-05
          0 0 0 0 0 0 0 0 0 0 0 0
          0 0 0 0 0 0 0 0 0 0 4.06792e-19 1.00958e-05
          0 0 0 0 0 0 0 0 0 0 0 0
          0 0 0 0 0 0 0 0 0 0 2.5396e-19 1.00997e-05
          0 0 0 0 0 0 0 0 0 0 0 0
          0 0 0 0 0 0 0 0 0 0 0 3.08554e-18
          0 0 0 0 0 0 0 0 0 0 0 0
          0 0 0 0 0 0 0 0 0 0 0 0
          0 0 0 0 0 0 0 0 0 0 0 0
          0 0 0 0 0 0 0 0 0 0 0 0
          0 0 0 0 0 0 0 0 0 0 0 0
          0 0 0 0 0 0 0 0 0 0 0 0
          0 0 0 0 0 0 0 0 0 0 0 0
          0 0 0 0 0 0 0 0 0 0 0 0
          0 0 0 0 0 0 0 0 0 0 0 0
          0 0 0 0 0 0 0 0 0 0 0 0
          0 0 0 0 0 0 0 0 0 0 0 0
          0 0 0 0 0 0 0 0 0 0 0 0
          0 0 0 0 0 0 0 0 0 0 0 0
          0 0 0 0 0 0 0 0 0 0 0 0
          0 0 0 0 0 0 0 0 0 0 0 0
          0 0 0 0 0 0 0 0 0 0 0 0
          0 0 0 0 0 0 0 0 0 0 0 0
          0 0 0 0 0 0 0 0 0 0 0 0
        </DataArray>
        <DataArray type="Float32" Name="porosity" NumberOfComponents="1" format="ascii">
          0.3 0.3 0.3 0.3 0.3 0.3 0.3 0.3 0.3 0.3 0.3 0.3
          0.3 0.3 0.3 0.3 0.3 0.3 0.3 0.3 0.3 0.3 0.3 0.3
          0.3 0.3 0.3 0.3 0.3 0.3 0.3 0.3 0.3 0.3 0.3 0.3
          0.3 0.3 0.3 0.3 0.3 0.3 0.3 0.3 0.3 0.3 0.3 0.3
          0.3 0.3 0.3 0.3 0.3 0.3 0.3 0.3 0.3 0.3 0.3 0.3
          0.3 0.3 0.3 0.3 0.3 0.3 0.3 0.3 0.3 0.3 0.3 0.3
          0.3 0.3 0.3 0.3 0.3 0.3 0.3 0.3 0.3 0.3 0.3 0.3
          0.3 0.3 0.3 0.3 0.3 0.3 0.3 0.3 0.3 0.3 0.3 0.3
          0.3 0.3 0.3 0.3 0.3 0.3 0.3 0.3 0.3 0.3 0.3 0.3
          0.3 0.3 0.3 0.3 0.3 0.3 0.3 0.3 0.3 0.3 0.3 0.3
          0.3 0.3 0.3 0.3 0.3 0.3 0.3 0.3 0.3 0.3 0.3 0.3
          0.3 0.3 0.3 0.3 0.3 0.3 0.3 0.3 0.3 0.3 0.3 0.3
          0.3 0.3 0.3 0.3 0.3 0.3 0.3 0.3 0.3 0.3 0.3 0.3
          0.3 0.3 0.3 0.3 0.3 0.3 0.3 0.3 0.3 0.3 0.3 0.3
          0.3 0.3 0.3 0.3 0.3 0.3 0.3 0.3 0.3 0.3 0.3 0.3
          0.3 0.3 0.3 0.3 0.3 0.3 0.3 0.3 0.3 0.3 0.3 0.3
          0.3 0.3 0.3 0.3 0.3 0.3 0.3 0.3 0.3 0.3 0.3 0.3
          0.3 0.3 0.3 0.3 0.3 0.3 0.3 0.3 0.3 0.3 0.3 0.3
          0.3 0.3 0.3 0.3 0.3 0.3 0.3 0.3 0.3 0.3 0.3 0.3
          0.3 0.3 0.3 0.3 0.3 0.3 0.3 0.3 0.3 0.3 0.3 0.3
          0.3 0.3 0.3 0.3 0.3 0.3 0.3 0.3 0.3 0.3 0.3 0.3
          0.3 0.3 0.3 0.3 0.3 0.3 0.3 0.3 0.3 0.3 0.3 0.3
          0.3 0.3 0.3 0.3 0.3 0.3 0.3 0.3 0.3 0.3 0.3 0.3
          0.3 0.3 0.3 0.3 0.3 0.3 0.3 0.3 0.3 0.3 0.3 0.3
          0.3 0.3 0.3 0.3 0.3 0.3 0.3 0.3 0.3 0.3 0.3 0.3
          0.3 0.3 0.3 0.3 0.3 0.3 0.3 0.3 0.3 0.3 0.3 0.3
          0.3 0.3 0.3 0.3 0.3 0.3 0.3 0.3 0.3 0.3 0.3 0.3
          0.3 0.3 0.3 0.3 0.3 0.3 0.3 0.3 0.3 0.3 0.3 0.3
          0.3 0.3 0.3 0.3 0.3 0.3 0.3 0.3 0.3 0.3 0.3 0.3
          0.3 0.3 0.3 0.3 0.3 0.3 0.3 0.3 0.3 0.3 0.3 0.3
          0.3 0.3 0.3 0.3 0.3 0.3 0.3 0.3 0.3 0.3 0.3 0.3
          0.3 0.3 0.3 0.3 0.3 0.3 0.3 0.3 0.3 0.3 0.3 0.3
        </DataArray>
        <DataArray type="Float32" Name="temperature" NumberOfComponents="1" format="ascii">
          293.15 293.15 293.15 293.15 293.15 293.15 293.15 293.15 293.15 293.15 293.15 293.15
          293.15 293.15 293.15 293.15 293.15 293.15 293.15 293.15 293.15 293.15 293.15 293.15
          293.15 293.15 293.15 293.15 293.15 293.15 293.15 293.15 293.233 293.233 293.233 293.233
          293.15 293.15 293.15 293.15 293.15 293.15 293.15 293.15 293.15 293.15 293.15 293.15
          293.15 293.15 293.15 293.15 293.15 293.15 293.15 293.24 392.903 392.972 392.935 392.379
          293.233 293.15 293.15 293.15 293.15 293.15 293.15 293.15 293.15 293.15 293.15 293.15
          293.15 293.15 293.15 293.15 293.15 293.15 293.15 293.353 393.065 393.15 393.149 392.756
          293.233 293.15 293.15 293.15 293.15 293.15 293.15 293.15 293.15 293.15 293.15 293.15
          293.15 293.15 293.15 293.15 293.15 293.15 293.15 293.404 393.065 393.15 393.15 392.812
          293.233 293.15 293.15 293.15 293.15 293.15 293.15 293.15 293.15 293.15 293.15 293.15
          293.15 293.15 293.15 293.15 293.15 293.15 293.151 293.44 393.066 393.15 393.15 392.855
          293.233 293.15 293.15 293.15 293.15 293.15 293.15 293.15 293.15 293.15 293.15 293.15
          293.15 293.15 293.15 293.15 293.15 293.15 293.151 293.478 393.066 393.15 393.15 392.9
          293.233 293.15 293.15 293.15 293.15 293.15 293.15 293.15 293.15 293.15 293.15 293.15
          293.15 293.15 293.15 293.15 293.15 293.15 293.151 293.539 393.066 393.15 393.15 392.957
          293.233 293.15 293.15 293.15 293.15 293.15 293.15 293.15 293.15 293.15 293.15 293.15
          293.15 293.15 293.15 293.15 293.15 293.15 293.152 293.693 393.066 393.15 393.15 393.053
          293.238 293.15 293.15 293.15 293.15 293.15 293.15 293.15 293.15 293.15 293.15 293.15
          293.15 293.15 293.15 293.15 293.15 293.15 293.15 293.28 393.065 393.15 393.15 393.065
          293.235 293.15 293.15 293.15 293.15 293.15 293.15 293.15 293.15 293.15 293.15 293.15
          293.15 293.15 293.15 293.15 293.15 293.15 293.15 293.268 393.065 393.15 393.15 393.06
          293.234 293.15 293.15 293.15 293.15 293.15 293.15 293.15 293.15 293.15 293.15 293.15
          293.15 293.15 293.15 293.15 293.15 293.15 293.15 293.266 393.065 393.15 393.15 393.06
          293.234 293.15 293.15 293.15 293.15 293.15 293.15 293.15 293.15 293.15 293.15 293.15
          293.15 293.15 293.15 293.15 293.15 293.15 293.15 293.269 393.065 393.15 393.15 393.062
          293.234 293.15 293.15 293.15 293.15 293.15 293.15 293.15 293.15 293.15 293.15 293.15
          293.15 293.15 293.15 293.15 293.15 293.15 293.15 293.285 392.981 393.065 393.065 392.981
          293.239 293.15 293.15 293.15 293.15 293.15 293.15 293.15 293.15 293.15 293.15 293.15
          293.15 293.15 293.15 293.15 293.15 293.15 293.15 293.15 293.255 293.247 293.244 293.245
          293.15 293.15 293.15 293.15 293.15 293.15 293.15 293.15 293.15 293.15 293.15 293.15
          293.15 293.15 293.15 293.15 293.15 293.15 293.15 293.15 293.15 293.15 293.15 293.15
          293.15 293.15 293.15 293.15 293.15 293.15 293.15 293.15 293.15 293.15 293.15 293.15
        </DataArray>
      </CellData>
      <Points>
        <DataArray type="Float32" Name="Coordinates" NumberOfComponents="3" format="ascii">
          0 0 0 2.5 0 0 0 2.5 0 2.5 2.5 0
          5 0 0 5 2.5 0 7.5 0 0 7.5 2.5 0
          10 0 0 10 2.5 0 12.5 0 0 12.5 2.5 0
          15 0 0 15 2.5 0 17.5 0 0 17.5 2.5 0
          20 0 0 20 2.5 0 22.5 0 0 22.5 2.5 0
          25 0 0 25 2.5 0 27.5 0 0 27.5 2.5 0
          30 0 0 30 2.5 0 32.5 0 0 32.5 2.5 0
          35 0 0 35 2.5 0 37.5 0 0 37.5 2.5 0
          40 0 0 40 2.5 0 42.5 0 0 42.5 2.5 0
          45 0 0 45 2.5 0 47.5 0 0 47.5 2.5 0
          50 0 0 50 2.5 0 52.5 0 0 52.5 2.5 0
          55 0 0 55 2.5 0 57.5 0 0 57.5 2.5 0
          60 0 0 60 2.5 0 0 5 0 2.5 5 0
          5 5 0 7.5 5 0 10 5 0 12.5 5 0
          15 5 0 17.5 5 0 20 5 0 22.5 5 0
          25 5 0 27.5 5 0 30 5 0 32.5 5 0
          35 5 0 37.5 5 0 40 5 0 42.5 5 0
          45 5 0 47.5 5 0 50 5 0 52.5 5 0
          55 5 0 57.5 5 0 60 5 0 0 7.5 0
          2.5 7.5 0 5 7.5 0 7.5 7.5 0 10 7.5 0
          12.5 7.5 0 15 7.5 0 17.5 7.5 0 20 7.5 0
          22.5 7.5 0 25 7.5 0 27.5 7.5 0 30 7.5 0
          32.5 7.5 0 35 7.5 0 37.5 7.5 0 40 7.5 0
          42.5 7.5 0 45 7.5 0 47.5 7.5 0 50 7.5 0
          52.5 7.5 0 55 7.5 0 57.5 7.5 0 60 7.5 0
          0 10 0 2.5 10 0 5 10 0 7.5 10 0
          10 10 0 12.5 10 0 15 10 0 17.5 10 0
          20 10 0 22.5 10 0 25 10 0 27.5 10 0
          30 10 0 32.5 10 0 35 10 0 37.5 10 0
          40 10 0 42.5 10 0 45 10 0 47.5 10 0
          50 10 0 52.5 10 0 55 10 0 57.5 10 0
          60 10 0 0 12.5 0 2.5 12.5 0 5 12.5 0
          7.5 12.5 0 10 12.5 0 12.5 12.5 0 15 12.5 0
          17.5 12.5 0 20 12.5 0 22.5 12.5 0 25 12.5 0
          27.5 12.5 0 30 12.5 0 32.5 12.5 0 35 12.5 0
          37.5 12.5 0 40 12.5 0 42.5 12.5 0 45 12.5 0
          47.5 12.5 0 50 12.5 0 52.5 12.5 0 55 12.5 0
          57.5 12.5 0 60 12.5 0 0 15 0 2.5 15 0
          5 15 0 7.5 15 0 10 15 0 12.5 15 0
          15 15 0 17.5 15 0 20 15 0 22.5 15 0
          25 15 0 27.5 15 0 30 15 0 32.5 15 0
          35 15 0 37.5 15 0 40 15 0 42.5 15 0
          45 15 0 47.5 15 0 50 15 0 52.5 15 0
          55 15 0 57.5 15 0 60 15 0 0 17.5 0
          2.5 17.5 0 5 17.5 0 7.5 17.5 0 10 17.5 0
          12.5 17.5 0 15 17.5 0 17.5 17.5 0 20 17.5 0
          22.5 17.5 0 25 17.5 0 27.5 17.5 0 30 17.5 0
          32.5 17.5 0 35 17.5 0 37.5 17.5 0 40 17.5 0
          42.5 17.5 0 45 17.5 0 47.5 17.5 0 50 17.5 0
          52.5 17.5 0 55 17.5 0 57.5 17.5 0 60 17.5 0
          0 20 0 2.5 20 0 5 20 0 7.5 20 0
          10 20 0 12.5 20 0 15 20 0 17.5 20 0
          20 20 0 22.5 20 0 25 20 0 27.5 20 0