<?xml version="1.0"?>
<VTKFile type="UnstructuredGrid" version="0.1" byte_order="LittleEndian">
  <UnstructuredGrid>
    <Piece NumberOfCells="384" NumberOfPoints="425">
      <PointData Scalars="pressure_l">
        <DataArray type="Float32" Name="pressure_l" NumberOfComponents="1" format="ascii">
          2.63166e+07 2.63219e+07 2.62952e+07 2.6296e+07 2.6324e+07 2.62977e+07 2.63256e+07 2.62992e+07 2.63269e+07 2.63005e+07 2.63281e+07 2.63017e+07
          2.63292e+07 2.63028e+07 2.63301e+07 2.63037e+07 2.6331e+07 2.63045e+07 2.63318e+07 2.63053e+07 2.63328e+07 2.63061e+07 2.63339e+07 2.63073e+07
          2.63354e+07 2.63088e+07 2.63369e+07 2.63104e+07 2.63385e+07 2.6312e+07 2.634e+07 2.63136e+07 2.63416e+07 2.63151e+07 2.63431e+07 2.63166e+07
          2.63446e+07 2.63181e+07 2.6346e+07 2.63195e+07 2.63474e+07 2.6321e+07 2.63488e+07 2.63224e+07 2.635e+07 2.63237e+07 2.6351e+07 2.63248e+07
          2.63513e+07 2.63252e+07 2.62693e+07 2.62703e+07 2.62716e+07 2.62729e+07 2.62742e+07 2.62754e+07 2.62765e+07 2.62774e+07 2.62782e+07 2.62785e+07
          2.62792e+07 2.62803e+07 2.62822e+07 2.62839e+07 2.62856e+07 2.62871e+07 2.62886e+07 2.62901e+07 2.62916e+07 2.62931e+07 2.62945e+07 2.6296e+07
          2.62975e+07 2.6299e+07 2.63006e+07 2.62431e+07 2.62442e+07 2.62455e+07 2.62467e+07 2.6248e+07 2.62492e+07 2.62503e+07 2.62514e+07 2.62522e+07
          2.62523e+07 2.62527e+07 2.62532e+07 2.62557e+07 2.62575e+07 2.62592e+07 2.62607e+07 2.62622e+07 2.62637e+07 2.62651e+07 2.62666e+07 2.62681e+07
          2.62696e+07 2.62713e+07 2.62732e+07 2.62762e+07 2.62169e+07 2.62181e+07 2.62193e+07 2.62206e+07 2.62218e+07 2.62231e+07 2.62243e+07 2.62255e+07
          2.62266e+07 2.62269e+07 2.62273e+07 2.62278e+07 2.62296e+07 2.62313e+07 2.62329e+07 2.62344e+07 2.62358e+07 2.62373e+07 2.62387e+07 2.62401e+07
          2.62416e+07 2.62432e+07 2.62449e+07 2.6247e+07 2.62501e+07 2.61907e+07 2.61919e+07 2.61931e+07 2.61944e+07 2.61957e+07 2.6197e+07 2.61983e+07
          2.61997e+07 2.6201e+07 2.62014e+07 2.62019e+07 2.62023e+07 2.62038e+07 2.62053e+07 2.62067e+07 2.62081e+07 2.62094e+07 2.62108e+07 2.62122e+07
          2.62136e+07 2.6215e+07 2.62165e+07 2.62182e+07 2.62201e+07 2.6223e+07 2.61644e+07 2.61656e+07 2.61669e+07 2.61682e+07 2.61695e+07 2.61709e+07
          2.61723e+07 2.61739e+07 2.61754e+07 2.61759e+07 2.61764e+07 2.61768e+07 2.6178e+07 2.61792e+07 2.61805e+07 2.61818e+07 2.61831e+07 2.61844e+07
          2.61857e+07 2.61871e+07 2.61884e+07 2.61898e+07 2.61912e+07 2.61927e+07 2.61942e+07 2.61382e+07 2.61394e+07 2.61406e+07 2.61419e+07 2.61433e+07
          2.61447e+07 2.61463e+07 2.6148e+07 2.61498e+07 2.61504e+07 2.6151e+07 2.61513e+07 2.61522e+07 2.61532e+07 2.61543e+07 2.61554e+07 2.61567e+07
          2.61579e+07 2.61592e+07 2.61605e+07 2.61618e+07 2.6163e+07 2.61642e+07 2.61652e+07 2.61656e+07 2.6112e+07 2.61131e+07 2.61143e+07 2.61156e+07
          2.6117e+07 2.61185e+07 2.61201e+07 2.61219e+07 2.61241e+07 2.61251e+07 2.61257e+07 2.6126e+07 2.61262e+07 2.6127e+07 2.6128e+07 2.61291e+07
          2.61302e+07 2.61315e+07 2.61327e+07 2.6134e+07 2.61352e+07 2.61363e+07 2.61373e+07 2.6138e+07 2.61383e+07 2.60858e+07 2.60869e+07 2.60881e+07
          2.60895e+07 2.60909e+07 2.60925e+07 2.60942e+07 2.60961e+07 2.60984e+07 2.60993e+07 2.60999e+07 2.61003e+07 2.61004e+07 2.6101e+07 2.61018e+07
          2.61028e+07 2.61039e+07 2.6105e+07 2.61061e+07 2.61073e+07 2.61083e+07 2.61093e+07 2.61102e+07 2.61107e+07 2.6111e+07 2.60596e+07 2.60609e+07
          2.60622e+07 2.60636e+07 2.60651e+07 2.60667e+07 2.60685e+07 2.60704e+07 2.60725e+07 2.60732e+07 2.60737e+07 2.60741e+07 2.60746e+07 2.60752e+07
          2.60759e+07 2.60767e+07 2.60776e+07 2.60786e+07 2.60795e+07 2.60804e+07 2.60813e+07 2.60821e+07 2.60827e+07 2.60832e+07 2.60833e+07 2.60334e+07
          2.60348e+07 2.60362e+07 2.60377e+07 2.60392e+07 2.60408e+07 2.60426e+07 2.60446e+07 2.60466e+07 2.60472e+07 2.60477e+07 2.60481e+07 2.60487e+07
          2.60492e+07 2.60498e+07 2.60505e+07 2.60513e+07 2.60521e+07 2.60529e+07 2.60537e+07 2.60544e+07 2.6055e+07 2.60555e+07 2.60558e+07 2.6056e+07
          2.60072e+07 2.60086e+07 2.60101e+07 2.60116e+07 2.60132e+07 2.60148e+07 2.60166e+07 2.60186e+07 2.60207e+07 2.60214e+07 2.60219e+07 2.60223e+07
          2.60227e+07 2.60232e+07 2.60237e+07 2.60243e+07 2.60249e+07 2.60256e+07 2.60263e+07 2.6027e+07 2.60276e+07 2.60281e+07 2.60285e+07 2.60287e+07
          2.60288e+07 2.5981e+07 2.59825e+07 2.5984e+07 2.59855e+07 2.59871e+07 2.59887e+07 2.59905e+07 2.59924e+07 2.59948e+07 2.59957e+07 2.59964e+07
          2.59968e+07 2.59968e+07 2.59971e+07 2.59975e+07 2.5998e+07 2.59985e+07 2.59991e+07 2.59997e+07 2.60003e+07 2.60008e+07 2.60013e+07 2.60016e+07
          2.60018e+07 2.60019e+07 2.59548e+07 2.59565e+07 2.5958e+07 2.59594e+07 2.59609e+07 2.59624e+07 2.59641e+07 2.59659e+07 2.59677e+07 2.59696e+07
          2.59704e+07 2.59708e+07 2.59706e+07 2.59708e+07 2.59712e+07 2.59716e+07 2.59721e+07 2.59727e+07 2.59732e+07 2.59737e+07 2.59742e+07 2.59746e+07
          2.59749e+07 2.5975e+07 2.59751e+07 2.59288e+07 2.59308e+07 2.59319e+07 2.59331e+07 2.59345e+07 2.59361e+07 2.59377e+07 2.59393e+07 2.59409e+07
          2.59423e+07 2.59433e+07 2.59438e+07 2.59442e+07 2.59444e+07 2.59448e+07 2.59452e+07 2.59457e+07 2.59462e+07 2.59467e+07 2.59471e+07 2.59476e+07
          2.59479e+07 2.59482e+07 2.59484e+07 2.59484e+07 2.59075e+07 2.59049e+07 2.59056e+07 2.59067e+07 2.59081e+07 2.59096e+07 2.59112e+07 2.59128e+07
          2.59143e+07 2.59157e+07 2.59166e+07 2.59172e+07 2.59176e+07 2.5918e+07 2.59183e+07 2.59187e+07 2.59192e+07 2.59197e+07 2.59202e+07 2.59206e+07
          2.59211e+07 2.59214e+07 2.59217e+07 2.59218e+07 2.59219e+07
        </DataArray>
        <DataArray type="Float32" Name="pressure_g" NumberOfComponents="1" format="ascii">
          2.63216e+07 2.63269e+07 2.63002e+07 2.6301e+07 2.6329e+07 2.63027e+07 2.63306e+07 2.63042e+07 2.63319e+07 2.63055e+07 2.63331e+07 2.63067e+07
          2.63342e+07 2.63078e+07 2.63351e+07 2.63087e+07 2.6336e+07 2.63095e+07 2.63368e+07 2.63103e+07 2.63378e+07 2.63111e+07 2.63389e+07 2.63123e+07
          2.63404e+07 2.63138e+07 2.63419e+07 2.63154e+07 2.63435e+07 2.6317e+07 2.6345e+07 2.63186e+07 2.63466e+07 2.63201e+07 2.63481e+07 2.63216e+07
          2.63496e+07 2.63231e+07 2.6351e+07 2.63245e+07 2.63524e+07 2.6326e+07 2.63538e+07 2.63274e+07 2.6355e+07 2.63287e+07 2.6356e+07 2.63298e+07
          2.63563e+07 2.63302e+07 2.62743e+07 2.62753e+07 2.62766e+07 2.62779e+07 2.62792e+07 2.62804e+07 2.62815e+07 2.62824e+07 2.62832e+07 2.62835e+07
          2.62842e+07 2.62853e+07 2.62872e+07 2.62889e+07 2.62906e+07 2.62921e+07 2.62936e+07 2.62951e+07 2.62966e+07 2.62981e+07 2.62995e+07 2.6301e+07
          2.63025e+07 2.6304e+07 2.63057e+07 2.62481e+07 2.62492e+07 2.62505e+07 2.62517e+07 2.6253e+07 2.62542e+07 2.62553e+07 2.62564e+07 2.62572e+07
          2.62573e+07 2.62577e+07 2.62582e+07 2.62607e+07 2.62625e+07 2.62642e+07 2.62657e+07 2.62672e+07 2.62687e+07 2.62701e+07 2.62716e+07 2.62731e+07
          2.62746e+07 2.62763e+07 2.62782e+07 2.62813e+07 2.62219e+07 2.62231e+07 2.62243e+07 2.62256e+07 2.62268e+07 2.62281e+07 2.62293e+07 2.62305e+07
          2.62316e+07 2.62319e+07 2.62323e+07 2.62328e+07 2.62346e+07 2.62363e+07 2.62379e+07 2.62394e+07 2.62408e+07 2.62423e+07 2.62437e+07 2.62451e+07
          2.62466e+07 2.62482e+07 2.62499e+07 2.6252e+07 2.62552e+07 2.61957e+07 2.61969e+07 2.61981e+07 2.61994e+07 2.62007e+07 2.6202e+07 2.62033e+07
          2.62047e+07 2.6206e+07 2.62064e+07 2.62069e+07 2.62073e+07 2.62088e+07 2.62103e+07 2.62117e+07 2.62131e+07 2.62144e+07 2.62158e+07 2.62172e+07
          2.62186e+07 2.622e+07 2.62215e+07 2.62232e+07 2.62251e+07 2.62281e+07 2.61694e+07 2.61706e+07 2.61719e+07 2.61732e+07 2.61745e+07 2.61759e+07
          2.61773e+07 2.61789e+07 2.61804e+07 2.61809e+07 2.61814e+07 2.61818e+07 2.6183e+07 2.61842e+07 2.61855e+07 2.61868e+07 2.61881e+07 2.61894e+07
          2.61907e+07 2.61921e+07 2.61934e+07 2.61948e+07 2.61962e+07 2.61977e+07 2.61993e+07 2.61432e+07 2.61444e+07 2.61456e+07 2.61469e+07 2.61483e+07
          2.61497e+07 2.61513e+07 2.6153e+07 2.61548e+07 2.61554e+07 2.6156e+07 2.61563e+07 2.61572e+07 2.61582e+07 2.61593e+07 2.61604e+07 2.61617e+07
          2.61629e+07 2.61642e+07 2.61655e+07 2.61668e+07 2.6168e+07 2.61692e+07 2.61702e+07 2.61706e+07 2.6117e+07 2.61181e+07 2.61193e+07 2.61206e+07
          2.6122e+07 2.61235e+07 2.61251e+07 2.61269e+07 2.61291e+07 2.61301e+07 2.61307e+07 2.6131e+07 2.61312e+07 2.6132e+07 2.6133e+07 2.61341e+07
          2.61352e+07 2.61365e+07 2.61377e+07 2.6139e+07 2.61402e+07 2.61413e+07 2.61423e+07 2.6143e+07 2.61433e+07 2.60958e+07 2.60969e+07 2.60981e+07
          2.60995e+07 2.61009e+07 2.61025e+07 2.61042e+07 2.61061e+07 2.61084e+07 2.61093e+07 2.61099e+07 2.61103e+07 2.61104e+07 2.6111e+07 2.61118e+07
          2.61128e+07 2.61139e+07 2.6115e+07 2.61161e+07 2.61173e+07 2.61183e+07 2.61193e+07 2.61202e+07 2.61207e+07 2.6121e+07 2.60696e+07 2.60709e+07
          2.60722e+07 2.60736e+07 2.60751e+07 2.60767e+07 2.60785e+07 2.60804e+07 2.60825e+07 2.60832e+07 2.60837e+07 2.60841e+07 2.60846e+07 2.60852e+07
          2.60859e+07 2.60867e+07 2.60876e+07 2.60886e+07 2.60895e+07 2.60904e+07 2.60913e+07 2.60921e+07 2.60927e+07 2.60932e+07 2.60933e+07 2.60434e+07
          2.60448e+07 2.60462e+07 2.60477e+07 2.60492e+07 2.60508e+07 2.60526e+07 2.60546e+07 2.60566e+07 2.60572e+07 2.60577e+07 2.60581e+07 2.60587e+07
          2.60592e+07 2.60598e+07 2.60605e+07 2.60613e+07 2.60621e+07 2.60629e+07 2.60637e+07 2.60644e+07 2.6065e+07 2.60655e+07 2.60658e+07 2.6066e+07
          2.60172e+07 2.60186e+07 2.60201e+07 2.60216e+07 2.60232e+07 2.60248e+07 2.60266e+07 2.60286e+07 2.60307e+07 2.60314e+07 2.60319e+07 2.60323e+07
          2.60327e+07 2.60332e+07 2.60337e+07 2.60343e+07 2.60349e+07 2.60356e+07 2.60363e+07 2.6037e+07 2.60376e+07 2.60381e+07 2.60385e+07 2.60387e+07
          2.60388e+07 2.5991e+07 2.59925e+07 2.5994e+07 2.59955e+07 2.59971e+07 2.59987e+07 2.60005e+07 2.60024e+07 2.60048e+07 2.60057e+07 2.60064e+07
          2.60068e+07 2.60068e+07 2.60071e+07 2.60075e+07 2.6008e+07 2.60085e+07 2.60091e+07 2.60097e+07 2.60103e+07 2.60108e+07 2.60113e+07 2.60116e+07
          2.60118e+07 2.60119e+07 2.59648e+07 2.59665e+07 2.5968e+07 2.59694e+07 2.59709e+07 2.59724e+07 2.59741e+07 2.59759e+07 2.59777e+07 2.59796e+07
          2.59804e+07 2.59808e+07 2.59806e+07 2.59808e+07 2.59812e+07 2.59816e+07 2.59821e+07 2.59827e+07 2.59832e+07 2.59837e+07 2.59842e+07 2.59846e+07
          2.59849e+07 2.5985e+07 2.59851e+07 2.59388e+07 2.59408e+07 2.59419e+07 2.59431e+07 2.59445e+07 2.59461e+07 2.59477e+07 2.59493e+07 2.59509e+07
          2.59523e+07 2.59533e+07 2.59538e+07 2.59542e+07 2.59544e+07 2.59548e+07 2.59552e+07 2.59557e+07 2.59562e+07 2.59567e+07 2.59571e+07 2.59576e+07
          2.59579e+07 2.59582e+07 2.59584e+07 2.59584e+07 2.59175e+07 2.59149e+07 2.59156e+07 2.59167e+07 2.59181e+07 2.59196e+07 2.59212e+07 2.59228e+07
          2.59243e+07 2.59257e+07 2.59266e+07 2.59272e+07 2.59276e+07 2.5928e+07 2.59283e+07 2.59287e+07 2.59292e+07 2.59297e+07 2.59302e+07 2.59306e+07
          2.59311e+07 2.59314e+07 2.59317e+07 2.59318e+07 2.59319e+07
        </DataArray>
        <DataArray type="Float32" Name="density_l" NumberOfComponents="1" format="ascii">
          1080.19 1080.19 1080.18 1080.18 1080.19 1080.18 1080.19 1080.18 1080.19 1080.18 1080.19 1080.18
          1080.19 1080.18 1080.19 1080.18 1080.19 1080.18 1080.19 1080.18 1080.2 1080.18 1080.2 1080.18
          1080.2 1080.19 1080.2 1080.19 1080.2 1080.19 1080.2 1080.19 1080.2 1080.19 1080.2 1080.19
          1080.2 1080.19 1080.2 1080.19 1080.2 1080.19 1080.2 1080.19 1080.2 1080.19 1080.2 1080.19
          1080.2 1080.19 1080.17 1080.17 1080.17 1080.17 1080.17 1080.17 1080.17 1080.17 1080.17 1080.17
          1080.17 1080.17 1080.17 1080.17 1080.18 1080.18 1080.18 1080.18 1080.18 1080.18 1080.18 1080.18
          1080.18 1080.18 1080.18 1080.16 1080.16 1080.16 1080.16 1080.16 1080.16 1080.16 1080.16 1080.16
          1017.06 1017.06 1017.06 1080.16 1080.16 1080.16 1080.17 1080.17 1080.17 1080.17 1080.17 1080.17
          1080.17 1080.17 1080.17 1080.17 1080.15 1080.15 1080.15 1080.15 1080.15 1080.15 1080.15 1080.15
          1080.15 1017.05 1017.05 1017.05 1080.15 1080.15 1080.15 1080.15 1080.15 1080.16 1080.16 1080.16
          1080.16 1080.16 1080.16 1080.16 1080.16 1080.14 1080.14 1080.14 1080.14 1080.14 1080.14 1080.14
          1080.14 1080.14 1017.04 1017.04 1017.04 1080.14 1080.14 1080.14 1080.14 1080.14 1080.14 1080.14
          1080.15 1080.15 1080.15 1080.15 1080.15 1080.15 1080.12 1080.12 1080.13 1080.13 1080.13 1080.13
          1080.13 1080.13 1080.13 1017.03 1017.03 1017.03 1080.13 1080.13 1080.13 1080.13 1080.13 1080.13
          1080.13 1080.13 1080.13 1080.14 1080.14 1080.14 1080.14 1080.11 1080.11 1080.11 1080.12 1080.12
          1080.12 1080.12 1080.12 1080.12 1017.02 1017.02 1017.02 1080.12 1080.12 1080.12 1080.12 1080.12
          1080.12 1080.12 1080.12 1080.12 1080.12 1080.12 1080.12 1080.12 1080.1 1080.1 1080.1 1080.1
          1080.1 1080.11 1080.11 1080.11 1080.11 1017.01 1017.01 1017.01 1080.11 1080.11 1080.11 1080.11
          1080.11 1080.11 1080.11 1080.11 1080.11 1080.11 1080.11 1080.11 1080.11 1080.09 1080.09 1080.09
          1080.09 1080.09 1080.09 1080.09 1080.1 1080.1 1017 1017 1017 1080.1 1080.1 1080.1
          1080.1 1080.1 1080.1 1080.1 1080.1 1080.1 1080.1 1080.1 1080.1 1080.1 1080.08 1080.08
          1080.08 1080.08 1080.08 1080.08 1080.08 1080.09 1080.09 1016.99 1016.99 1016.99 1080.09 1080.09
          1080.09 1080.09 1080.09 1080.09 1080.09 1080.09 1080.09 1080.09 1080.09 1080.09 1080.09 1080.07
          1080.07 1080.07 1080.07 1080.07 1080.07 1080.07 1080.07 1080.08 1016.98 1016.98 1016.98 1080.08
          1080.08 1080.08 1080.08 1080.08 1080.08 1080.08 1080.08 1080.08 1080.08 1080.08 1080.08 1080.08
          1080.06 1080.06 1080.06 1080.06 1080.06 1080.06 1080.06 1080.06 1080.06 1016.97 1016.97 1016.97
          1080.07 1080.07 1080.07 1080.07 1080.07 1080.07 1080.07 1080.07 1080.07 1080.07 1080.07 1080.07
          1080.07 1080.05 1080.05 1080.05 1080.05 1080.05 1080.05 1080.05 1080.05 1080.05 1016.96 1016.96
          1016.96 1080.05 1080.05 1080.05 1080.05 1080.05 1080.06 1080.06 1080.06 1080.06 1080.06 1080.06
          1080.06 1080.06 1080.04 1080.04 1080.04 1080.04 1080.04 1080.04 1080.04 1080.04 1080.04 1080.04
          1080.04 1080.04 1080.04 1080.04 1080.04 1080.04 1080.04 1080.04 1080.04 1080.04 1080.04 1080.04
          1080.04 1080.04 1080.05 1080.03 1080.03 1080.03 1080.03 1080.03 1080.03 1080.03 1080.03 1080.03
          1080.03 1080.03 1080.03 1080.03 1080.03 1080.03 1080.03 1080.03 1080.03 1080.03 1080.03 1080.03
          1080.03 1080.03 1080.03 1080.03 1080.02 1080.02 1080.02 1080.02 1080.02 1080.02 1080.02 1080.02
          1080.02 1080.02 1080.02 1080.02 1080.02 1080.02 1080.02 1080.02 1080.02 1080.02 1080.02 1080.02
          1080.02 1080.02 1080.02 1080.02 1080.02
        </DataArray>
        <DataArray type="Float32" Name="density_g" NumberOfComponents="1" format="ascii">
          969.119 969.143 969.023 969.026 969.152 969.034 969.159 969.04 969.165 969.046 969.171 969.052
          969.176 969.057 969.18 969.061 969.184 969.065 969.187 969.068 969.192 969.072 969.197 969.077
          969.203 969.084 969.21 969.091 969.217 969.098 969.224 969.105 969.231 969.112 969.238 969.119
          969.244 969.126 969.251 969.132 969.257 969.139 969.263 969.145 969.269 969.151 969.273 969.156
          969.275 969.158 968.906 968.91 968.916 968.922 968.928 968.933 968.938 968.942 968.946 968.947
          968.95 968.956 968.964 968.972 968.979 968.986 968.993 969 969.006 969.013 969.02 969.026
          969.033 969.04 969.047 968.788 968.793 968.798 968.804 968.81 968.815 968.82 968.825 968.829
          527.806 527.813 527.822 968.844 968.853 968.86 968.867 968.874 968.88 968.887 968.894 968.9
          968.907 968.915 968.923 968.937 968.669 968.675 968.68 968.686 968.692 968.697 968.703 968.708
          968.713 527.372 527.38 527.388 968.727 968.735 968.742 968.748 968.755 968.761 968.768 968.774
          968.781 968.788 968.796 968.805 968.82 968.551 968.557 968.562 968.568 968.574 968.58 968.586
          968.592 968.598 526.937 526.944 526.952 968.61 968.617 968.623 968.63 968.636 968.642 968.648
          968.655 968.661 968.668 968.675 968.684 968.698 968.433 968.438 968.444 968.45 968.456 968.462
          968.468 968.475 968.482 526.501 526.509 526.516 968.494 968.5 968.505 968.511 968.517 968.523
          968.529 968.535 968.541 968.547 968.553 968.56 968.567 968.315 968.32 968.325 968.331 968.337
          968.344 968.351 968.359 968.367 526.065 526.074 526.081 968.378 968.382 968.387 968.392 968.398
          968.403 968.409 968.415 968.421 968.426 968.432 968.436 968.438 968.196 968.201 968.206 968.212
          968.219 968.225 968.233 968.241 968.251 525.632 525.642 525.648 968.261 968.264 968.268 968.273
          968.279 968.284 968.29 968.295 968.301 968.306 968.31 968.314 968.315 968.099 968.105 968.11
          968.116 968.123 968.13 968.138 968.146 968.157 525.274 525.284 525.29 968.166 968.169 968.173
          968.177 968.182 968.187 968.192 968.197 968.202 968.207 968.21 968.213 968.214 967.981 967.986
          967.992 967.999 968.006 968.013 968.021 968.03 968.039 524.822 524.831 524.837 968.049 968.051
          968.055 968.058 968.063 968.067 968.071 968.075 968.079 968.083 968.086 968.088 968.088 967.862
          967.868 967.874 967.881 967.888 967.896 967.904 967.912 967.922 524.373 524.382 524.388 967.931
          967.934 967.936 967.94 967.943 967.947 967.95 967.954 967.957 967.96 967.962 967.964 967.964
          967.743 967.749 967.756 967.763 967.77 967.777 967.786 967.794 967.804 523.926 523.936 523.942
          967.813 967.815 967.818 967.82 967.823 967.826 967.83 967.833 967.835 967.838 967.839 967.841
          967.841 967.624 967.631 967.638 967.644 967.651 967.659 967.667 967.675 967.686 523.482 523.494
          523.5 967.695 967.697 967.699 967.701 967.703 967.706 967.709 967.711 967.714 967.716 967.717
          967.718 967.719 967.505 967.513 967.519 967.526 967.532 967.539 967.547 967.555 967.563 967.572
          967.576 967.577 967.577 967.578 967.579 967.581 967.583 967.586 967.588 967.591 967.593 967.595
          967.596 967.597 967.597 967.387 967.396 967.401 967.406 967.413 967.42 967.427 967.435 967.442
          967.448 967.453 967.455 967.456 967.458 967.459 967.461 967.463 967.466 967.468 967.47 967.472
          967.474 967.475 967.476 967.476 967.29 967.278 967.281 967.286 967.293 967.299 967.307 967.314
          967.321 967.327 967.331 967.334 967.336 967.338 967.339 967.341 967.343 967.345 967.348 967.35
          967.352 967.353 967.354 967.355 967.355
        </DataArray>
        <DataArray type="Float32" Name="saturation_l" NumberOfComponents="1" format="ascii">
          1 1 1 1 1 1 1 1 1 1 1 1
          1 1 1 1 1 1 1 1 1 1 1 1
          1 1 1 1 1 1 1 1 1 1 1 1
          1 1 1 1 1 1 1 1 1 1 1 1
          1 1 1 1 1 1 1 1 1 1 1 1
          1 1 1 1 1 1 1 1 1 1 1 1
          1 1 0.986242 1 1 1 1 1 1 1 1 1
          1 1 1 1 1 1 1 1 1 1 1 1
          1 1 0.999996 0.97249 1 1 1 1 1 1 1 1
          1 1 1 1 1 1 1 1 1 1 1 1
          1 1 1 0.999995 0.972486 1 1 1 1 1 1 1
          1 1 1 1 1 1 1 1 1 1 1 1
          1 1 1 1 0.999996 0.972482 1 1 1 1 1 1
          1 1 1 1 1 1 1 1 1 1 1 1
          1 1 1 1 1 1 0.986228 1 1 1 1 1
          1 1 1 1 1 1 1 1 1 1 1 1
          1 1 1 1 1 1 1 0.999999 1 1 1 1
          1 1 1 1 1 1 1 1 1 1 1 1
          1 1 1 1 1 1 1 1 1 1 1 1
          1 1 1 1 1 1 1 1 1 1 1 1
          1 1 1 1 1 1 1 1 1 1 1 1
          1 1 1 1 1 1 1 1 1 1 1 1
          1 1 1 1 1 1 1 1 1 1 1 1
          1 1 1 1 1 1 1 1 1 1 1 1
          1 1 1 1 1 1 1 1 1 1 1 1
          1 1 1 1 1 1 1 1 1 1 1 1
          1 1 1 1 1 1 1 1 1 1 1 1
          1 1 1 1 1 1 1 1 1 1 1 1
          1 1 1 1 1 1 1 1 1 1 1 1
          1 1 1 1 1 1 1 1 1 1 1 1
          1 1 1 1 1 1 1 1 1 1 1 1
          1 1 1 1 1 1 1 1 1 1 1 1
          1 1 1 1 1 1 1 1 1 1 1 1
          1 1 1 1 1 1 1 1 1 1 1 1
          1 1 1 1 1 1 1 1 1 1 1 1
          1 1 1 1 1
        </DataArray>
        <DataArray type="Float32" Name="saturation_g" NumberOfComponents="1" format="ascii">
          0 0 0 0 0 0 0 0 0 0 0 0
          0 0 0 0 0 0 0 0 0 0 0 0
          0 0 0 0 0 0 0 0 0 0 0 0
          0 0 0 0 0 0 0 0 0 0 0 0
          0 0 0 0 0 0 0 0 0 0 0 0
          0 0 0 0 0 0 0 0 0 0 0 0
          0 3.13722e-07 0.0137584 0 0 0 0 0 0 0 0 0
          0 0 0 0 0 0 0 0 0 0 0 0
          0 0 4.28516e-06 0.0275096 0 0 0 0 0 0 0 0
          0 0 0 0 0 0 0 0 0 0 0 0
          0 0 0 4.66894e-06 0.0275143 0 0 0 0 0 0 0
          0 0 0 0 0 0 0 0 0 0 0 0
          0 0 0 0 4.27642e-06 0.0275177 0 0 0 0 0 0
          0 0 0 0 0 0 0 0 0 0 0 0
          0 0 0 0 0 3.1015e-07 0.0137716 0 0 0 0 0
          0 0 0 0 0 0 0 0 0 0 0 0
          0 0 0 0 0 0 0 8.78186e-07 0 0 0 0
          0 0 0 0 0 0 0 0 0 0 0 0
          0 0 0 0 0 0 0 0 0 0 0 0
          0 0 0 0 0 0 0 0 0 0 0 0
          0 0 0 0 0 0 0 0 0 0 0 0
          0 0 0 0 0 0 0 0 0 0 0 0
          0 0 0 0 0 0 0 0 0 0 0 0
          0 0 0 0 0 0 0 0 0 0 0 0
          0 0 0 0 0 0 0 0 0 0 0 0
          0 0 0 0 0 0 0 0 0 0 0 0
          0 0 0 0 0 0 0 0 0 0 0 0
          0 0 0 0 0 0 0 0 0 0 0 0
          0 0 0 0 0 0 0 0 0 0 0 0
          0 0 0 0 0 0 0 0 0 0 0 0
          0 0 0 0 0 0 0 0 0 0 0 0
          0 0 0 0 0 0 0 0 0 0 0 0
          0 0 0 0 0 0 0 0 0 0 0 0
          0 0 0 0 0 0 0 0 0 0 0 0
          0 0 0 0 0 0 0 0 0 0 0 0
          0 0 0 0 0
        </DataArray>
        <DataArray type="Float32" Name="relativePerm_l" NumberOfComponents="1" format="ascii">
          1 1 1 1 1 1 1 1 1 1 1 1
          1 1 1 1 1 1 1 1 1 1 1 1
          1 1 1 1 1 1 1 1 1 1 1 1
          1 1 1 1 1 1 1 1 1 1 1 1
          1 1 1 1 1 1 1 1 1 1 1 1
          1 1 1 1 1 1 1 1 1 1 1 1
          1 0.999998 0.932962 1 1 1 1 1 1 1 1 1
          1 1 1 1 1 1 1 1 1 1 1 1
          1 1 0.999979 0.869386 1 1 1 1 1 1 1 1
          1 1 1 1 1 1 1 1 1 1 1 1
          1 1 1 0.999977 0.869365 1 1 1 1 1 1 1
          1 1 1 1 1 1 1 1 1 1 1 1
          1 1 1 1 0.999979 0.869349 1 1 1 1 1 1
          1 1 1 1 1 1 1 1 1 1 1 1
          1 1 1 1 1 0.999998 0.9329 1 1 1 1 1
          1 1 1 1 1 1 1 1 1 1 1 1
          1 1 1 1 1 1 1 0.999996 1 1 1 1
          1 1 1 1 1 1 1 1 1 1 1 1
          1 1 1 1 1 1 1 1 1 1 1 1
          1 1 1 1 1 1 1 1 1 1 1 1
          1 1 1 1 1 1 1 1 1 1 1 1
          1 1 1 1 1 1 1 1 1 1 1 1
          1 1 1 1 1 1 1 1 1 1 1 1
          1 1 1 1 1 1 1 1 1 1 1 1
          1 1 1 1 1 1 1 1 1 1 1 1
          1 1 1 1 1 1 1 1 1 1 1 1
          1 1 1 1 1 1 1 1 1 1 1 1
          1 1 1 1 1 1 1 1 1 1 1 1
          1 1 1 1 1 1 1 1 1 1 1 1
          1 1 1 1 1 1 1 1 1 1 1 1
          1 1 1 1 1 1 1 1 1 1 1 1
          1 1 1 1 1 1 1 1 1 1 1 1
          1 1 1 1 1 1 1 1 1 1 1 1
          1 1 1 1 1 1 1 1 1 1 1 1
          1 1 1 1 1 1 1 1 1 1 1 1
          1 1 1 1 1
        </DataArray>
        <DataArray type="Float32" Name="relativePerm_g" NumberOfComponents="1" format="ascii">
          0 0 0 0 0 0 0 0 0 0 0 0
          0 0 0 0 0 0 0 0 0 0 0 0
          0 0 0 0 0 0 0 0 0 0 0 0
          0 0 0 0 0 0 0 0 0 0 0 0
          0 0 0 0 0 0 0 0 0 0 0 0
          0 0 0 0 0 0 0 0 0 0 0 0
          0 1.20613e-19 1.00859e-05 0 0 0 0 0 0 0 0 0
          0 0 0 0 0 0 0 0 0 0 0 0
          0 0 3.0737e-16 7.99247e-05 0 0 0 0 0 0 0 0
          0 0 0 0 0 0 0 0 0 0 0 0
          0 0 0 3.9757e-16 7.9965e-05 0 0 0 0 0 0 0
          0 0 0 0 0 0 0 0 0 0 0 0
          0 0 0 0 3.05493e-16 7.99948e-05 0 0 0 0 0 0
          0 0 0 0 0 0 0 0 0 0 0 0
          0 0 0 0 0 1.1654e-19 1.01147e-05 0 0 0 0 0
          0 0 0 0 0 0 0 0 0 0 0 0
          0 0 0 0 0 0 0 2.64557e-18 0 0 0 0
          0 0 0 0 0 0 0 0 0 0 0 0
          0 0 0 0 0 0 0 0 0 0 0 0
          0 0 0 0 0 0 0 0 0 0 0 0
          0 0 0 0 0 0 0 0 0 0 0 0
          0 0 0 0 0 0 0 0 0 0 0 0
          0 0 0 0 0 0 0 0 0 0 0 0
          0 0 0 0 0 0 0 0 0 0 0 0
          0 0 0 0 0 0 0 0 0 0 0 0
          0 0 0 0 0 0 0 0 0 0 0 0
          0 0 0 0 0 0 0 0 0 0 0 0
          0 0 0 0 0 0 0 0 0 0 0 0
          0 0 0 0 0 0 0 0 0 0 0 0
          0 0 0 0 0 0 0 0 0 0 0 0
          0 0 0 0 0 0 0 0 0 0 0 0
          0 0 0 0 0 0 0 0 0 0 0 0
          0 0 0 0 0 0 0 0 0 0 0 0
          0 0 0 0 0 0 0 0 0 0 0 0
          0 0 0 0 0 0 0 0 0 0 0 0
          0 0 0 0 0
        </DataArray>
        <DataArray type="Float32" Name="porosity" NumberOfComponents="1" format="ascii">
          0.3 0.3 0.3 0.3 0.3 0.3 0.3 0.3 0.3 0.3 0.3 0.3
          0.3 0.3 0.3 0.3 0.3 0.3 0.3 0.3 0.3 0.3 0.3 0.3
          0.3 0.3 0.3 0.3 0.3 0.3 0.3 0.3 0.3 0.3 0.3 0.3
          0.3 0.3 0.3 0.3 0.3 0.3 0.3 0.3 0.3 0.3 0.3 0.3
          0.3 0.3 0.3 0.3 0.3 0.3 0.3 0.3 0.3 0.3 0.3 0.3
          0.3 0.3 0.3 0.3 0.3 0.3 0.3 0.3 0.3 0.3 0.3 0.3
          0.3 0.3 0.3 0.3 0.3 0.3 0.3 0.3 0.3 0.3 0.3 0.3
          0.3 0.3 0.3 0.3 0.3 0.3 0.3 0.3 0.3 0.3 0.3 0.3
          0.3 0.3 0.3 0.3 0.3 0.3 0.3 0.3 0.3 0.3 0.3 0.3
          0.3 0.3 0.3 0.3 0.3 0.3 0.3 0.3 0.3 0.3 0.3 0.3
          0.3 0.3 0.3 0.3 0.3 0.3 0.3 0.3 0.3 0.3 0.3 0.3
          0.3 0.3 0.3 0.3 0.3 0.3 0.3 0.3 0.3 0.3 0.3 0.3
          0.3 0.3 0.3 0.3 0.3 0.3 0.3 0.3 0.3 0.3 0.3 0.3
          0.3 0.3 0.3 0.3 0.3 0.3 0.3 0.3 0.3 0.3 0.3 0.3
          0.3 0.3 0.3 0.3 0.3 0.3 0.3 0.3 0.3 0.3 0.3 0.3
          0.3 0.3 0.3 0.3 0.3 0.3 0.3 0.3 0.3 0.3 0.3 0.3
          0.3 0.3 0.3 0.3 0.3 0.3 0.3 0.3 0.3 0.3 0.3 0.3
          0.3 0.3 0.3 0.3 0.3 0.3 0.3 0.3 0.3 0.3 0.3 0.3
          0.3 0.3 0.3 0.3 0.3 0.3 0.3 0.3 0.3 0.3 0.3 0.3
          0.3 0.3 0.3 0.3 0.3 0.3 0.3 0.3 0.3 0.3 0.3 0.3
          0.3 0.3 0.3 0.3 0.3 0.3 0.3 0.3 0.3 0.3 0.3 0.3
          0.3 0.3 0.3 0.3 0.3 0.3 0.3 0.3 0.3 0.3 0.3 0.3
          0.3 0.3 0.3 0.3 0.3 0.3 0.3 0.3 0.3 0.3 0.3 0.3
          0.3 0.3 0.3 0.3 0.3 0.3 0.3 0.3 0.3 0.3 0.3 0.3
          0.3 0.3 0.3 0.3 0.3 0.3 0.3 0.3 0.3 0.3 0.3 0.3
          0.3 0.3 0.3 0.3 0.3 0.3 0.3 0.3 0.3 0.3 0.3 0.3
          0.3 0.3 0.3 0.3 0.3 0.3 0.3 0.3 0.3 0.3 0.3 0.3
          0.3 0.3 0.3 0.3 0.3 0.3 0.3 0.3 0.3 0.3 0.3 0.3
          0.3 0.3 0.3 0.3 0.3 0.3 0.3 0.3 0.3 0.3 0.3 0.3
          0.3 0.3 0.3 0.3 0.3 0.3 0.3 0.3 0.3 0.3 0.3 0.3
          0.3 0.3 0.3 0.3 0.3 0.3 0.3 0.3 0.3 0.3 0.3 0.3
          0.3 0.3 0.3 0.3 0.3 0.3 0.3 0.3 0.3 0.3 0.3 0.3
          0.3 0.3 0.3 0.3 0.3 0.3 0.3 0.3 0.3 0.3 0.3 0.3
          0.3 0.3 0.3 0.3 0.3 0.3 0.3 0.3 0.3 0.3 0.3 0.3
          0.3 0.3 0.3 0.3 0.3 0.3 0.3 0.3 0.3 0.3 0.3 0.3
          0.3 0.3 0.3 0.3 0.3
        </DataArray>
        <DataArray type="Float32" Name="temperature" NumberOfComponents="1" format="ascii">
          293.15 293.15 293.15 293.15 293.15 293.15 293.15 293.15 293.15 293.15 293.15 293.15
          293.15 293.15 293.15 293.15 293.15 293.15 293.15 293.15 293.15 293.15 293.15 293.15
          293.15 293.15 293.15 293.15 293.15 293.15 293.15 293.15 293.15 293.15 293.15 293.15
          293.15 293.15 293.15 293.15 293.15 293.15 293.15 293.15 293.15 293.15 293.15 293.15
          293.15 293.15 293.15 293.15 293.15 293.15 293.15 293.15 293.15 293.15 293.15 293.15
          293.15 293.15 293.15 293.15 293.15 293.15 293.15 293.15 293.15 293.15 293.15 293.15
          293.15 293.15 293.15 293.15 293.15 293.15 293.15 293.15 293.15 293.15 293.15 293.15
          393.15 393.15 393.15 293.15 293.15 293.15 293.15 293.15 293.15 293.15 293.15 293.15
          293.15 293.15 293.15 293.15 293.15 293.15 293.15 293.15 293.15 293.15 293.15 293.15
          293.15 393.15 393.15 393.15 293.15 293.15 293.15 293.15 293.15 293.15 293.15 293.15
          293.15 293.15 293.15 293.15 293.15 293.15 293.15 293.15 293.15 293.15 293.15 293.15
          293.15 293.15 393.15 393.15 393.15 293.15 293.15 293.15 293.15 293.15 293.15 293.15
          293.15 293.15 293.15 293.15 293.15 293.15 293.15 293.15 293.15 293.15 293.15 293.15
          293.15 293.15 293.15 393.15 393.15 393.15 293.15 293.15 293.15 293.15 293.15 293.15
          293.15 293.15 293.15 293.15 293.15 293.15 293.15 293.15 293.15 293.15 293.15 293.15
          293.15 293.15 293.15 293.15 393.15 393.15 393.15 293.15 293.15 293.15 293.15 293.15
          293.15 293.15 293.15 293.15 293.15 293.15 293.15 293.15 293.15 293.15 293.15 293.15
          293.15 293.15 293.15 293.15 293.15 393.15 393.15 393.15 293.15 293.15 293.15 293.15
          293.15 293.15 293.15 293.15 293.15 293.15 293.15 293.15 293.15 293.15 293.15 293.15
          293.15 293.15 293.15 293.15 293.15 293.15 393.15 393.15 393.15 293.15 293.15 293.15
          293.15 293.15 293.15 293.15 293.15 293.15 293.15 293.15 293.15 293.15 293.15 293.15
          293.15 293.15 293.15 293.15 293.15 293.15 293.15 393.15 393.15 393.15 293.15 293.15
          293.15 293.15 293.15 293.15 293.15 293.15 293.15 293.15 293.15 293.15 293.15 293.15
          293.15 293.15 293.15 293.15 293.15 293.15 293.15 293.15 393.15 393.15 393.15 293.15
          293.15 293.15 293.15 293.15 293.15 293.15 293.15 293.15 293.15 293.15 293.15 293.15
          293.15 293.15 293.15 293.15 293.15 293.15 293.15 293.15 293.15 393.15 393.15 393.15
          293.15 293.15 293.15 293.15 293.15 293.15 293.15 293.15 293.15 293.15 293.15 293.15
          293.15 293.15 293.15 293.15 293.15 293.15 293.15 293.15 293.15 293.15 393.15 393.15
          393.15 293.15 293.15 293.15 293.15 293.15 293.15 293.15 293.15 293.15 293.15 293.15
          293.15 293.15 293.15 293.15 293.15 293.15 293.15 293.15 293.15 293.15 293.15 293.15
          293.15 293.15 293.15 293.15 293.15 293.15 293.15 293.15 293.15 293.15 293.15 293.15
          293.15 293.15 293.15 293.15 293.15 293.15 293.15 293.15 293.15 293.15 293.15 293.15
          293.15 293.15 293.15 293.15 293.15 293.15 293.15 293.15 293.15 293.15 293.15 293.15