<?xml version="1.0"?>
<VTKFile type="UnstructuredGrid" version="0.1" byte_order="LittleEndian">
  <UnstructuredGrid>
    <Piece NumberOfCells="384" NumberOfPoints="425">
      <PointData Scalars="pressure_l">
        <DataArray type="Float32" Name="pressure_l" NumberOfComponents="1" format="ascii">
          2.63181e+07 2.63221e+07 2.62953e+07 2.6296e+07 2.63238e+07 2.62974e+07 2.6325e+07 2.62985e+07 2.6326e+07 2.62995e+07 2.63269e+07 2.63004e+07
          2.63276e+07 2.63012e+07 2.63283e+07 2.63018e+07 2.63288e+07 2.63023e+07 2.63294e+07 2.63028e+07 2.63301e+07 2.63034e+07 2.6331e+07 2.63043e+07
          2.63321e+07 2.63055e+07 2.63333e+07 2.63068e+07 2.63346e+07 2.63081e+07 2.63358e+07 2.63093e+07 2.6337e+07 2.63105e+07 2.63382e+07 2.63116e+07
          2.63393e+07 2.63127e+07 2.63404e+07 2.63138e+07 2.63415e+07 2.63149e+07 2.63425e+07 2.6316e+07 2.63434e+07 2.6317e+07 2.63441e+07 2.63178e+07
          2.63444e+07 2.63181e+07 2.62694e+07 2.62702e+07 2.62712e+07 2.62722e+07 2.62732e+07 2.6274e+07 2.62748e+07 2.62754e+07 2.62759e+07 2.6276e+07
          2.62764e+07 2.62773e+07 2.62789e+07 2.62803e+07 2.62816e+07 2.62828e+07 2.6284e+07 2.62851e+07 2.62862e+07 2.62873e+07 2.62884e+07 2.62895e+07
          2.62907e+07 2.62918e+07 2.62929e+07 2.62433e+07 2.62441e+07 2.6245e+07 2.6246e+07 2.62469e+07 2.62478e+07 2.62486e+07 2.62493e+07 2.62497e+07
          2.62496e+07 2.62499e+07 2.62503e+07 2.62524e+07 2.62539e+07 2.62552e+07 2.62564e+07 2.62575e+07 2.62586e+07 2.62597e+07 2.62608e+07 2.62619e+07
          2.62631e+07 2.62643e+07 2.62658e+07 2.62677e+07 2.62171e+07 2.62179e+07 2.62188e+07 2.62198e+07 2.62207e+07 2.62216e+07 2.62225e+07 2.62233e+07
          2.6224e+07 2.62242e+07 2.62245e+07 2.62249e+07 2.62263e+07 2.62277e+07 2.62289e+07 2.623e+07 2.62311e+07 2.62322e+07 2.62332e+07 2.62343e+07
          2.62354e+07 2.62366e+07 2.62378e+07 2.62394e+07 2.62414e+07 2.61908e+07 2.61917e+07 2.61926e+07 2.61935e+07 2.61945e+07 2.61954e+07 2.61964e+07
          2.61974e+07 2.61984e+07 2.61987e+07 2.6199e+07 2.61993e+07 2.62005e+07 2.62016e+07 2.62026e+07 2.62036e+07 2.62047e+07 2.62057e+07 2.62067e+07
          2.62078e+07 2.62088e+07 2.62099e+07 2.62111e+07 2.62125e+07 2.62144e+07 2.61646e+07 2.61655e+07 2.61663e+07 2.61673e+07 2.61683e+07 2.61693e+07
          2.61704e+07 2.61715e+07 2.61727e+07 2.61731e+07 2.61735e+07 2.61738e+07 2.61746e+07 2.61755e+07 2.61764e+07 2.61773e+07 2.61783e+07 2.61792e+07
          2.61802e+07 2.61812e+07 2.61822e+07 2.61832e+07 2.61842e+07 2.61853e+07 2.61864e+07 2.61384e+07 2.61392e+07 2.614e+07 2.6141e+07 2.6142e+07
          2.61431e+07 2.61443e+07 2.61456e+07 2.61471e+07 2.61476e+07 2.6148e+07 2.61483e+07 2.61488e+07 2.61494e+07 2.61501e+07 2.6151e+07 2.61518e+07
          2.61527e+07 2.61537e+07 2.61546e+07 2.61555e+07 2.61565e+07 2.61573e+07 2.6158e+07 2.61583e+07 2.61121e+07 2.61128e+07 2.61136e+07 2.61146e+07
          2.61156e+07 2.61168e+07 2.6118e+07 2.61195e+07 2.61214e+07 2.61222e+07 2.61226e+07 2.61229e+07 2.61228e+07 2.61232e+07 2.61238e+07 2.61245e+07
          2.61254e+07 2.61262e+07 2.61271e+07 2.6128e+07 2.61289e+07 2.61298e+07 2.61305e+07 2.6131e+07 2.61312e+07 2.60859e+07 2.60866e+07 2.60875e+07
          2.60885e+07 2.60895e+07 2.60907e+07 2.60921e+07 2.60936e+07 2.60955e+07 2.60964e+07 2.60968e+07 2.60971e+07 2.60969e+07 2.60972e+07 2.60976e+07
          2.60983e+07 2.6099e+07 2.60998e+07 2.61006e+07 2.61014e+07 2.61022e+07 2.61029e+07 2.61035e+07 2.61039e+07 2.61041e+07 2.60597e+07 2.60606e+07
          2.60616e+07 2.60626e+07 2.60637e+07 2.6065e+07 2.60664e+07 2.60679e+07 2.60697e+07 2.60702e+07 2.60706e+07 2.60709e+07 2.60711e+07 2.60713e+07
          2.60717e+07 2.60722e+07 2.60728e+07 2.60734e+07 2.6074e+07 2.60747e+07 2.60753e+07 2.60759e+07 2.60763e+07 2.60766e+07 2.60767e+07 2.60336e+07
          2.60346e+07 2.60356e+07 2.60367e+07 2.60378e+07 2.60391e+07 2.60405e+07 2.60421e+07 2.60437e+07 2.60442e+07 2.60446e+07 2.60448e+07 2.60451e+07
          2.60454e+07 2.60456e+07 2.6046e+07 2.60465e+07 2.6047e+07 2.60475e+07 2.6048e+07 2.60485e+07 2.6049e+07 2.60493e+07 2.60495e+07 2.60496e+07
          2.60074e+07 2.60084e+07 2.60095e+07 2.60106e+07 2.60118e+07 2.60131e+07 2.60145e+07 2.60161e+07 2.60178e+07 2.60183e+07 2.60188e+07 2.6019e+07
          2.60192e+07 2.60193e+07 2.60195e+07 2.60198e+07 2.60201e+07 2.60205e+07 2.6021e+07 2.60214e+07 2.60218e+07 2.60222e+07 2.60224e+07 2.60226e+07
          2.60227e+07 2.59812e+07 2.59823e+07 2.59834e+07 2.59845e+07 2.59857e+07 2.59869e+07 2.59883e+07 2.59899e+07 2.59918e+07 2.59926e+07 2.59932e+07
          2.59934e+07 2.59932e+07 2.59931e+07 2.59932e+07 2.59935e+07 2.59937e+07 2.59941e+07 2.59944e+07 2.59948e+07 2.59951e+07 2.59954e+07 2.59956e+07
          2.59958e+07 2.59958e+07 2.59551e+07 2.59563e+07 2.59573e+07 2.59583e+07 2.59594e+07 2.59606e+07 2.5962e+07 2.59634e+07 2.59649e+07 2.59665e+07
          2.59671e+07 2.59673e+07 2.59669e+07 2.59668e+07 2.59669e+07 2.59671e+07 2.59673e+07 2.59676e+07 2.59679e+07 2.59682e+07 2.59685e+07 2.59687e+07
          2.59689e+07 2.5969e+07 2.59691e+07 2.59292e+07 2.59305e+07 2.59311e+07 2.5932e+07 2.59331e+07 2.59342e+07 2.59355e+07 2.59368e+07 2.59381e+07
          2.59392e+07 2.594e+07 2.59403e+07 2.59404e+07 2.59404e+07 2.59405e+07 2.59406e+07 2.59408e+07 2.59411e+07 2.59414e+07 2.59416e+07 2.59419e+07
          2.59421e+07 2.59423e+07 2.59424e+07 2.59424e+07 2.59064e+07 2.59044e+07 2.59048e+07 2.59056e+07 2.59066e+07 2.59077e+07 2.5909e+07 2.59103e+07
          2.59115e+07 2.59125e+07 2.59133e+07 2.59136e+07 2.59138e+07 2.59139e+07 2.5914e+07 2.59141e+07 2.59143e+07 2.59146e+07 2.59148e+07 2.59151e+07
          2.59153e+07 2.59156e+07 2.59157e+07 2.59158e+07 2.59159e+07
        </DataArray>
        <DataArray type="Float32" Name="pressure_g" NumberOfComponents="1" format="ascii">
          2.63231e+07 2.63271e+07 2.63003e+07 2.6301e+07 2.63288e+07 2.63024e+07 2.633e+07 2.63035e+07 2.6331e+07 2.63045e+07 2.63319e+07 2.63054e+07
          2.63326e+07 2.63062e+07 2.63333e+07 2.63068e+07 2.63338e+07 2.63073e+07 2.63344e+07 2.63078e+07 2.63351e+07 2.63084e+07 2.6336e+07 2.63093e+07
          2.63371e+07 2.63105e+07 2.63383e+07 2.63118e+07 2.63396e+07 2.63131e+07 2.63408e+07 2.63143e+07 2.6342e+07 2.63155e+07 2.63432e+07 2.63166e+07
          2.63443e+07 2.63177e+07 2.63454e+07 2.63188e+07 2.63465e+07 2.63199e+07 2.63475e+07 2.6321e+07 2.63484e+07 2.6322e+07 2.63491e+07 2.63228e+07
          2.63494e+07 2.63231e+07 2.62744e+07 2.62752e+07 2.62762e+07 2.62772e+07 2.62782e+07 2.6279e+07 2.62798e+07 2.62804e+07 2.62809e+07 2.6281e+07
          2.62814e+07 2.62823e+07 2.62839e+07 2.62853e+07 2.62866e+07 2.62878e+07 2.6289e+07 2.62901e+07 2.62912e+07 2.62923e+07 2.62934e+07 2.62945e+07
          2.62957e+07 2.62968e+07 2.62979e+07 2.62483e+07 2.62491e+07 2.625e+07 2.6251e+07 2.62519e+07 2.62528e+07 2.62536e+07 2.62543e+07 2.62547e+07
          2.62546e+07 2.62549e+07 2.62553e+07 2.62574e+07 2.62589e+07 2.62602e+07 2.62614e+07 2.62625e+07 2.62636e+07 2.62647e+07 2.62658e+07 2.62669e+07
          2.62681e+07 2.62693e+07 2.62708e+07 2.62727e+07 2.62221e+07 2.62229e+07 2.62238e+07 2.62248e+07 2.62257e+07 2.62266e+07 2.62275e+07 2.62283e+07
          2.6229e+07 2.62292e+07 2.62295e+07 2.62299e+07 2.62313e+07 2.62327e+07 2.62339e+07 2.6235e+07 2.62361e+07 2.62372e+07 2.62382e+07 2.62393e+07
          2.62404e+07 2.62416e+07 2.62428e+07 2.62444e+07 2.62464e+07 2.61958e+07 2.61967e+07 2.61976e+07 2.61985e+07 2.61995e+07 2.62004e+07 2.62014e+07
          2.62024e+07 2.62034e+07 2.62037e+07 2.6204e+07 2.62043e+07 2.62055e+07 2.62066e+07 2.62076e+07 2.62086e+07 2.62097e+07 2.62107e+07 2.62117e+07
          2.62128e+07 2.62138e+07 2.62149e+07 2.62161e+07 2.62175e+07 2.62194e+07 2.61696e+07 2.61705e+07 2.61713e+07 2.61723e+07 2.61733e+07 2.61743e+07
          2.61754e+07 2.61765e+07 2.61777e+07 2.61781e+07 2.61785e+07 2.61788e+07 2.61796e+07 2.61805e+07 2.61814e+07 2.61823e+07 2.61833e+07 2.61842e+07
          2.61852e+07 2.61862e+07 2.61872e+07 2.61882e+07 2.61892e+07 2.61903e+07 2.61914e+07 2.61434e+07 2.61442e+07 2.6145e+07 2.6146e+07 2.6147e+07
          2.61481e+07 2.61493e+07 2.61506e+07 2.61521e+07 2.61526e+07 2.6153e+07 2.61533e+07 2.61538e+07 2.61544e+07 2.61551e+07 2.6156e+07 2.61568e+07
          2.61577e+07 2.61587e+07 2.61596e+07 2.61605e+07 2.61615e+07 2.61623e+07 2.6163e+07 2.61633e+07 2.61171e+07 2.61178e+07 2.61186e+07 2.61196e+07
          2.61206e+07 2.61218e+07 2.6123e+07 2.61245e+07 2.61264e+07 2.61272e+07 2.61276e+07 2.61279e+07 2.61278e+07 2.61282e+07 2.61288e+07 2.61295e+07
          2.61304e+07 2.61312e+07 2.61321e+07 2.6133e+07 2.61339e+07 2.61348e+07 2.61355e+07 2.6136e+07 2.61362e+07 2.60959e+07 2.60966e+07 2.60975e+07
          2.60985e+07 2.60995e+07 2.61007e+07 2.61021e+07 2.61036e+07 2.61055e+07 2.61064e+07 2.61068e+07 2.61071e+07 2.61069e+07 2.61072e+07 2.61076e+07
          2.61083e+07 2.6109e+07 2.61098e+07 2.61106e+07 2.61114e+07 2.61122e+07 2.61129e+07 2.61135e+07 2.61139e+07 2.61141e+07 2.60697e+07 2.60706e+07
          2.60716e+07 2.60726e+07 2.60737e+07 2.6075e+07 2.60764e+07 2.60779e+07 2.60797e+07 2.60802e+07 2.60806e+07 2.60809e+07 2.60811e+07 2.60813e+07
          2.60817e+07 2.60822e+07 2.60828e+07 2.60834e+07 2.6084e+07 2.60847e+07 2.60853e+07 2.60859e+07 2.60863e+07 2.60866e+07 2.60867e+07 2.60436e+07
          2.60446e+07 2.60456e+07 2.60467e+07 2.60478e+07 2.60491e+07 2.60505e+07 2.60521e+07 2.60537e+07 2.60542e+07 2.60546e+07 2.60548e+07 2.60551e+07
          2.60554e+07 2.60556e+07 2.6056e+07 2.60565e+07 2.6057e+07 2.60575e+07 2.6058e+07 2.60585e+07 2.6059e+07 2.60593e+07 2.60595e+07 2.60596e+07
          2.60174e+07 2.60184e+07 2.60195e+07 2.60206e+07 2.60218e+07 2.60231e+07 2.60245e+07 2.60261e+07 2.60278e+07 2.60283e+07 2.60288e+07 2.6029e+07
          2.60292e+07 2.60293e+07 2.60295e+07 2.60298e+07 2.60301e+07 2.60305e+07 2.6031e+07 2.60314e+07 2.60318e+07 2.60322e+07 2.60324e+07 2.60326e+07
          2.60327e+07 2.59912e+07 2.59923e+07 2.59934e+07 2.59945e+07 2.59957e+07 2.59969e+07 2.59983e+07 2.59999e+07 2.60018e+07 2.60026e+07 2.60032e+07
          2.60034e+07 2.60032e+07 2.60031e+07 2.60032e+07 2.60035e+07 2.60037e+07 2.60041e+07 2.60044e+07 2.60048e+07 2.60051e+07 2.60054e+07 2.60056e+07
          2.60058e+07 2.60058e+07 2.59651e+07 2.59663e+07 2.59673e+07 2.59683e+07 2.59694e+07 2.59706e+07 2.5972e+07 2.59734e+07 2.59749e+07 2.59765e+07
          2.59771e+07 2.59773e+07 2.59769e+07 2.59768e+07 2.59769e+07 2.59771e+07 2.59773e+07 2.59776e+07 2.59779e+07 2.59782e+07 2.59785e+07 2.59787e+07
          2.59789e+07 2.5979e+07 2.59791e+07 2.59392e+07 2.59405e+07 2.59411e+07 2.5942e+07 2.59431e+07 2.59442e+07 2.59455e+07 2.59468e+07 2.59481e+07
          2.59492e+07 2.595e+07 2.59503e+07 2.59504e+07 2.59504e+07 2.59505e+07 2.59506e+07 2.59508e+07 2.59511e+07 2.59514e+07 2.59516e+07 2.59519e+07
          2.59521e+07 2.59523e+07 2.59524e+07 2.59524e+07 2.59164e+07 2.59144e+07 2.59148e+07 2.59156e+07 2.59166e+07 2.59177e+07 2.5919e+07 2.59203e+07
          2.59215e+07 2.59225e+07 2.59233e+07 2.59236e+07 2.59238e+07 2.59239e+07 2.5924e+07 2.59241e+07 2.59243e+07 2.59246e+07 2.59248e+07 2.59251e+07
          2.59253e+07 2.59256e+07 2.59257e+07 2.59258e+07 2.59259e+07
        </DataArray>
        <DataArray type="Float32" Name="density_l" NumberOfComponents="1" format="ascii">
          1082.34 1082.34 1082.33 1082.33 1082.34 1082.33 1082.34 1082.33 1082.34 1082.33 1082.34 1082.33
          1082.34 1082.33 1082.34 1082.33 1082.34 1082.33 1082.34 1082.33 1082.34 1082.33 1082.34 1082.33
          1082.34 1082.33 1082.34 1082.33 1082.34 1082.33 1082.35 1082.33 1082.35 1082.33 1082.35 1082.34
          1082.35 1082.34 1082.35 1082.34 1082.35 1082.34 1082.35 1082.34 1082.35 1082.34 1082.35 1082.34
          1082.35 1082.35 1082.32 1082.32 1082.32 1082.32 1082.32 1082.32 1082.32 1082.32 1082.32 1082.32
          1082.32 1082.32 1082.32 1082.32 1082.32 1082.32 1082.32 1082.32 1082.32 1082.33 1082.33 1082.33
          1082.33 1082.33 1084.64 1082.31 1082.31 1082.31 1082.31 1082.31 1082.31 1082.31 1082.31 1082.31
          1019.15 1019.15 1019.15 1082.31 1082.31 1082.31 1082.31 1082.31 1082.31 1082.31 1082.31 1082.31
          1082.32 1082.32 1082.34 1086.89 1082.3 1082.3 1082.3 1082.3 1082.3 1082.3 1082.3 1082.3
          1082.3 1019.14 1019.14 1019.14 1082.3 1082.3 1082.3 1082.3 1082.3 1082.3 1082.3 1082.3
          1082.3 1082.3 1082.3 1082.33 1086.88 1082.29 1082.29 1082.29 1082.29 1082.29 1082.29 1082.29
          1082.29 1082.29 1019.14 1019.14 1019.14 1082.29 1082.29 1082.29 1082.29 1082.29 1082.29 1082.29
          1082.29 1082.29 1082.29 1082.29 1082.32 1086.87 1082.27 1082.27 1082.27 1082.28 1082.28 1082.28
          1082.28 1082.28 1082.28 1019.13 1019.13 1019.13 1082.28 1082.28 1082.28 1082.28 1082.28 1082.28
          1082.28 1082.28 1082.28 1082.28 1082.28 1082.29 1084.6 1082.26 1082.26 1082.26 1082.26 1082.26
          1082.27 1082.27 1082.27 1082.27 1019.12 1019.12 1019.12 1082.27 1082.27 1082.27 1082.27 1082.27
          1082.27 1082.27 1082.27 1082.27 1082.27 1082.27 1082.27 1082.28 1082.25 1082.25 1082.25 1082.25
          1082.25 1082.25 1082.25 1082.26 1082.26 1019.11 1019.11 1019.11 1082.26 1082.26 1082.26 1082.26
          1082.26 1082.26 1082.26 1082.26 1082.26 1082.26 1082.26 1082.26 1082.26 1082.24 1082.24 1082.24
          1082.24 1082.24 1082.24 1082.24 1082.24 1082.25 1019.1 1019.1 1019.1 1082.25 1082.25 1082.25
          1082.25 1082.25 1082.25 1082.25 1082.25 1082.25 1082.25 1082.25 1082.25 1082.25 1082.23 1082.23
          1082.23 1082.23 1082.23 1082.23 1082.23 1082.23 1082.23 1019.09 1019.09 1019.09 1082.24 1082.24
          1082.24 1082.24 1082.24 1082.24 1082.24 1082.24 1082.24 1082.24 1082.24 1082.24 1082.24 1082.22
          1082.22 1082.22 1082.22 1082.22 1082.22 1082.22 1082.22 1082.22 1019.08 1019.08 1019.08 1082.22
          1082.22 1082.22 1082.22 1082.22 1082.23 1082.23 1082.23 1082.23 1082.23 1082.23 1082.23 1082.23
          1082.21 1082.21 1082.21 1082.21 1082.21 1082.21 1082.21 1082.21 1082.21 1019.07 1019.07 1019.07
          1082.21 1082.21 1082.21 1082.21 1082.21 1082.21 1082.21 1082.21 1082.21 1082.21 1082.21 1082.21
          1082.21 1082.2 1082.2 1082.2 1082.2 1082.2 1082.2 1082.2 1082.2 1082.2 1019.06 1019.06
          1019.06 1082.2 1082.2 1082.2 1082.2 1082.2 1082.2 1082.2 1082.2 1082.2 1082.2 1082.2
          1082.2 1082.2 1082.19 1082.19 1082.19 1082.19 1082.19 1082.19 1082.19 1082.19 1082.19 1082.19
          1082.19 1082.19 1082.19 1082.19 1082.19 1082.19 1082.19 1082.19 1082.19 1082.19 1082.19 1082.19
          1082.19 1082.19 1082.19 1082.18 1082.18 1082.18 1082.18 1082.18 1082.18 1082.18 1082.18 1082.18
          1082.18 1082.18 1082.18 1082.18 1082.18 1082.18 1082.18 1082.18 1082.18 1082.18 1082.18 1082.18
          1082.18 1082.18 1082.18 1082.18 1082.17 1082.17 1082.17 1082.17 1082.17 1082.17 1082.17 1082.17
          1082.17 1082.17 1082.17 1082.17 1082.17 1082.17 1082.17 1082.17 1082.17 1082.17 1082.17 1082.17
          1082.17 1082.17 1082.17 1082.17 1082.17
        </DataArray>
        <DataArray type="Float32" Name="density_g" NumberOfComponents="1" format="ascii">
          969.126 969.144 969.023 969.026 969.151 969.032 969.157 969.038 969.161 969.042 969.165 969.046
          969.169 969.049 969.172 969.052 969.174 969.055 969.177 969.057 969.18 969.06 969.184 969.064
          969.189 969.069 969.194 969.075 969.2 969.081 969.205 969.086 969.211 969.091 969.216 969.097
          969.221 969.102 969.226 969.107 969.231 969.112 969.235 969.116 969.239 969.121 969.242 969.124
          969.244 969.126 968.906 968.91 968.914 968.919 968.923 968.927 968.931 968.933 968.935 968.936
          968.938 968.942 968.949 968.955 968.961 968.967 968.972 968.977 968.982 968.987 968.992 968.997
          969.002 969.007 969.012 968.788 968.792 968.796 968.801 968.805 968.809 968.812 968.815 968.817
          527.761 527.766 527.772 968.83 968.836 968.842 968.847 968.853 968.858 968.863 968.867 968.872
          968.878 968.883 968.89 968.899 968.67 968.674 968.678 968.682 968.686 968.691 968.695 968.698
          968.701 527.327 527.331 527.338 968.712 968.718 968.723 968.728 968.733 968.738 968.743 968.748
          968.753 968.758 968.764 968.771 968.78 968.552 968.556 968.56 968.564 968.568 968.573 968.577
          968.581 968.586 526.89 526.895 526.901 968.595 968.6 968.605 968.61 968.614 968.619 968.623
          968.628 968.633 968.638 968.643 968.65 968.658 968.434 968.437 968.441 968.446 968.45 968.455
          968.46 968.465 968.47 526.453 526.459 526.464 968.479 968.483 968.487 968.491 968.495 968.499
          968.504 968.508 968.513 968.517 968.522 968.527 968.532 968.315 968.319 968.323 968.327 968.331
          968.336 968.342 968.348 968.355 526.017 526.024 526.028 968.362 968.365 968.368 968.372 968.376
          968.38 968.384 968.388 968.393 968.397 968.401 968.404 968.405 968.196 968.2 968.203 968.208
          968.212 968.218 968.223 968.23 968.238 525.582 525.59 525.595 968.245 968.247 968.249 968.253
          968.257 968.26 968.265 968.269 968.273 968.276 968.28 968.282 968.283 968.1 968.103 968.107
          968.112 968.117 968.122 968.128 968.135 968.144 525.223 525.231 525.235 968.15 968.151 968.154
          968.156 968.16 968.163 968.167 968.171 968.174 968.177 968.18 968.182 968.183 967.981 967.985
          967.99 967.994 968 968.005 968.011 968.019 968.026 524.771 524.778 524.782 968.033 968.034
          968.036 968.038 968.041 968.043 968.046 968.049 968.052 968.055 968.057 968.058 968.059 967.863
          967.867 967.872 967.877 967.882 967.888 967.894 967.901 967.909 524.321 524.328 524.332 967.915
          967.916 967.917 967.919 967.921 967.923 967.926 967.928 967.93 967.932 967.934 967.935 967.935
          967.744 967.748 967.753 967.758 967.764 967.769 967.776 967.783 967.791 523.874 523.881 523.885
          967.797 967.798 967.799 967.8 967.802 967.803 967.805 967.807 967.809 967.811 967.812 967.813
          967.813 967.625 967.63 967.635 967.64 967.645 967.651 967.657 967.664 967.673 523.429 523.438
          523.442 967.679 967.679 967.679 967.68 967.682 967.683 967.685 967.686 967.688 967.689 967.69
          967.691 967.691 967.506 967.512 967.516 967.521 967.526 967.531 967.537 967.544 967.55 967.558
          967.561 967.562 967.56 967.559 967.56 967.561 967.562 967.563 967.564 967.566 967.567 967.568
          967.569 967.57 967.57 967.389 967.394 967.397 967.401 967.406 967.411 967.417 967.423 967.429
          967.434 967.438 967.439 967.439 967.439 967.44 967.44 967.441 967.443 967.444 967.445 967.446
          967.447 967.448 967.448 967.449 967.285 967.276 967.277 967.281 967.286 967.291 967.297 967.302
          967.308 967.313 967.316 967.318 967.319 967.319 967.319 967.32 967.321 967.322 967.323 967.324
          967.326 967.327 967.327 967.328 967.328
        </DataArray>
        <DataArray type="Float32" Name="saturation_l" NumberOfComponents="1" format="ascii">
          1 1 1 1 1 1 1 1 1 1 1 1
          1 1 1 1 1 1 1 1 1 1 1 1
          1 1 1 1 1 1 1 1 1 1 1 1
          1 1 1 1 1 1 1 1 1 1 1 1
          1 1 1 1 1 1 1 1 1 1 1 1
          1 1 1 1 1 1 1 1 1 1 1 1
          1 1 1 1 1 1 1 1 1 1 1 1
          1 1 1 1 1 1 1 1 1 1 1 1
          1 1 1 1 1 1 1 1 1 1 1 1
          1 1 1 1 1 1 1 1 1 1 1 1
          1 1 1 1 1 1 1 1 1 1 1 1
          1 1 1 1 1 1 1 1 1 1 1 1
          1 1 1 1 1 1 1 1 1 1 1 1
          1 1 1 1 1 1 1 1 1 1 1 1
          1 1 1 1 1 1 1 1 1 1 1 1
          1 1 1 1 1 1 1 1 1 1 1 1
          1 1 1 1 1 1 1 1 1 1 1 1
          1 1 1 1 1 1 1 1 1 1 1 1
          1 1 1 1 1 1 1 1 1 1 1 1
          1 1 1 1 1 1 1 1 1 1 1 1
          1 1 1 1 1 1 1 1 1 1 1 1
          1 1 1 1 1 1 1 1 1 1 1 1
          1 1 1 1 1 1 1 1 1 1 1 1
          1 1 1 1 1 1 1 1 1 1 1 1
          1 1 1 1 1 1 1 1 1 1 1 1
          1 1 1 1 1 1 1 1 1 1 1 1
          1 1 1 1 1 1 1 1 1 1 1 1
          1 1 1 1 1 1 1 1 1 1 1 1
          1 1 1 1 1 1 1 1 1 1 1 1
          1 1 1 1 1 1 1 1 1 1 1 1
          1 1 1 1 1 1 1 1 1 1 1 1
          1 1 1 1 1 1 1 1 1 1 1 1
          1 1 1 1 1 1 1 1 1 1 1 1
          1 1 1 1 1 1 1 1 1 1 1 1
          1 1 1 1 1 1 1 1 1 1 1 1
          1 1 1 1 1
        </DataArray>
        <DataArray type="Float32" Name="saturation_g" NumberOfComponents="1" format="ascii">
          0 0 0 0 0 0 0 0 0 0 0 0
          0 0 0 0 0 0 0 0 0 0 0 0
          0 0 0 0 0 0 0 0 0 0 0 0
          0 0 0 0 0 0 0 0 0 0 0 0
          0 0 0 0 0 0 0 0 0 0 0 0
          0 0 0 0 0 0 0 0 0 0 0 0
          0 0 0 0 0 0 0 0 0 0 0 0
          0 0 0 0 0 0 0 0 0 0 0 0
          0 0 0 0 0 0 0 0 0 0 0 0
          0 0 0 0 0 0 0 0 0 0 0 0
          0 0 0 0 0 0 0 0 0 0 0 0
          0 0 0 0 0 0 0 0 0 0 0 0
          0 0 0 0 0 0 0 0 0 0 0 0
          0 0 0 0 0 0 0 0 0 0 0 0
          0 0 0 0 0 0 0 0 0 0 0 0
          0 0 0 0 0 0 0 0 0 0 0 0
          0 0 0 0 0 0 0 0 0 0 0 0
          0 0 0 0 0 0 0 0 0 0 0 0
          0 0 0 0 0 0 0 0 0 0 0 0
          0 0 0 0 0 0 0 0 0 0 0 0
          0 0 0 0 0 0 0 0 0 0 0 0
          0 0 0 0 0 0 0 0 0 0 0 0
          0 0 0 0 0 0 0 0 0 0 0 0
          0 0 0 0 0 0 0 0 0 0 0 0
          0 0 0 0 0 0 0 0 0 0 0 0
          0 0 0 0 0 0 0 0 0 0 0 0
          0 0 0 0 0 0 0 0 0 0 0 0
          0 0 0 0 0 0 0 0 0 0 0 0
          0 0 0 0 0 0 0 0 0 0 0 0
          0 0 0 0 0 0 0 0 0 0 0 0
          0 0 0 0 0 0 0 0 0 0 0 0
          0 0 0 0 0 0 0 0 0 0 0 0
          0 0 0 0 0 0 0 0 0 0 0 0
          0 0 0 0 0 0 0 0 0 0 0 0
          0 0 0 0 0 0 0 0 0 0 0 0
          0 0 0 0 0
        </DataArray>
        <DataArray type="Float32" Name="relativePerm_l" NumberOfComponents="1" format="ascii">
          1 1 1 1 1 1 1 1 1 1 1 1
          1 1 1 1 1 1 1 1 1 1 1 1
          1 1 1 1 1 1 1 1 1 1 1 1
          1 1 1 1 1 1 1 1 1 1 1 1
          1 1 1 1 1 1 1 1 1 1 1 1
          1 1 1 1 1 1 1 1 1 1 1 1
          1 1 1 1 1 1 1 1 1 1 1 1
          1 1 1 1 1 1 1 1 1 1 1 1
          1 1 1 1 1 1 1 1 1 1 1 1
          1 1 1 1 1 1 1 1 1 1 1 1
          1 1 1 1 1 1 1 1 1 1 1 1
          1 1 1 1 1 1 1 1 1 1 1 1
          1 1 1 1 1 1 1 1 1 1 1 1
          1 1 1 1 1 1 1 1 1 1 1 1
          1 1 1 1 1 1 1 1 1 1 1 1
          1 1 1 1 1 1 1 1 1 1 1 1
          1 1 1 1 1 1 1 1 1 1 1 1
          1 1 1 1 1 1 1 1 1 1 1 1
          1 1 1 1 1 1 1 1 1 1 1 1
          1 1 1 1 1 1 1 1 1 1 1 1
          1 1 1 1 1 1 1 1 1 1 1 1
          1 1 1 1 1 1 1 1 1 1 1 1
          1 1 1 1 1 1 1 1 1 1 1 1
          1 1 1 1 1 1 1 1 1 1 1 1
          1 1 1 1 1 1 1 1 1 1 1 1
          1 1 1 1 1 1 1 1 1 1 1 1
          1 1 1 1 1 1 1 1 1 1 1 1
          1 1 1 1 1 1 1 1 1 1 1 1
          1 1 1 1 1 1 1 1 1 1 1 1
          1 1 1 1 1 1 1 1 1 1 1 1
          1 1 1 1 1 1 1 1 1 1 1 1
          1 1 1 1 1 1 1 1 1 1 1 1
          1 1 1 1 1 1 1 1 1 1 1 1
          1 1 1 1 1 1 1 1 1 1 1 1
          1 1 1 1 1 1 1 1 1 1 1 1
          1 1 1 1 1
        </DataArray>
        <DataArray type="Float32" Name="relativePerm_g" NumberOfComponents="1" format="ascii">
          0 0 0 0 0 0 0 0 0 0 0 0
          0 0 0 0 0 0 0 0 0 0 0 0
          0 0 0 0 0 0 0 0 0 0 0 0
          0 0 0 0 0 0 0 0 0 0 0 0
          0 0 0 0 0 0 0 0 0 0 0 0
          0 0 0 0 0 0 0 0 0 0 0 0
          0 0 0 0 0 0 0 0 0 0 0 0
          0 0 0 0 0 0 0 0 0 0 0 0
          0 0 0 0 0 0 0 0 0 0 0 0
          0 0 0 0 0 0 0 0 0 0 0 0
          0 0 0 0 0 0 0 0 0 0 0 0
          0 0 0 0 0 0 0 0 0 0 0 0
          0 0 0 0 0 0 0 0 0 0 0 0
          0 0 0 0 0 0 0 0 0 0 0 0
          0 0 0 0 0 0 0 0 0 0 0 0
          0 0 0 0 0 0 0 0 0 0 0 0
          0 0 0 0 0 0 0 0 0 0 0 0
          0 0 0 0 0 0 0 0 0 0 0 0
          0 0 0 0 0 0 0 0 0 0 0 0
          0 0 0 0 0 0 0 0 0 0 0 0
          0 0 0 0 0 0 0 0 0 0 0 0
          0 0 0 0 0 0 0 0 0 0 0 0
          0 0 0 0 0 0 0 0 0 0 0 0
          0 0 0 0 0 0 0 0 0 0 0 0
          0 0 0 0 0 0 0 0 0 0 0 0
          0 0 0 0 0 0 0 0 0 0 0 0
          0 0 0 0 0 0 0 0 0 0 0 0
          0 0 0 0 0 0 0 0 0 0 0 0
          0 0 0 0 0 0 0 0 0 0 0 0
          0 0 0 0 0 0 0 0 0 0 0 0
          0 0 0 0 0 0 0 0 0 0 0 0
          0 0 0 0 0 0 0 0 0 0 0 0
          0 0 0 0 0 0 0 0 0 0 0 0
          0 0 0 0 0 0 0 0 0 0 0 0
          0 0 0 0 0 0 0 0 0 0 0 0
          0 0 0 0 0
        </DataArray>
        <DataArray type="Float32" Name="porosity" NumberOfComponents="1" format="ascii">
          0.3 0.3 0.3 0.3 0.3 0.3 0.3 0.3 0.3 0.3 0.3 0.3
          0.3 0.3 0.3 0.3 0.3 0.3 0.3 0.3 0.3 0.3 0.3 0.3
          0.3 0.3 0.3 0.3 0.3 0.3 0.3 0.3 0.3 0.3 0.3 0.3
          0.3 0.3 0.3 0.3 0.3 0.3 0.3 0.3 0.3 0.3 0.3 0.3
          0.3 0.3 0.3 0.3 0.3 0.3 0.3 0.3 0.3 0.3 0.3 0.3
          0.3 0.3 0.3 0.3 0.3 0.3 0.3 0.3 0.3 0.3 0.3 0.3
          0.3 0.3 0.3 0.3 0.3 0.3 0.3 0.3 0.3 0.3 0.3 0.3
          0.3 0.3 0.3 0.3 0.3 0.3 0.3 0.3 0.3 0.3 0.3 0.3
          0.3 0.3 0.3 0.3 0.3 0.3 0.3 0.3 0.3 0.3 0.3 0.3
          0.3 0.3 0.3 0.3 0.3 0.3 0.3 0.3 0.3 0.3 0.3 0.3
          0.3 0.3 0.3 0.3 0.3 0.3 0.3 0.3 0.3 0.3 0.3 0.3
          0.3 0.3 0.3 0.3 0.3 0.3 0.3 0.3 0.3 0.3 0.3 0.3
          0.3 0.3 0.3 0.3 0.3 0.3 0.3 0.3 0.3 0.3 0.3 0.3
          0.3 0.3 0.3 0.3 0.3 0.3 0.3 0.3 0.3 0.3 0.3 0.3
          0.3 0.3 0.3 0.3 0.3 0.3 0.3 0.3 0.3 0.3 0.3 0.3
          0.3 0.3 0.3 0.3 0.3 0.3 0.3 0.3 0.3 0.3 0.3 0.3
          0.3 0.3 0.3 0.3 0.3 0.3 0.3 0.3 0.3 0.3 0.3 0.3
          0.3 0.3 0.3 0.3 0.3 0.3 0.3 0.3 0.3 0.3 0.3 0.3
          0.3 0.3 0.3 0.3 0.3 0.3 0.3 0.3 0.3 0.3 0.3 0.3
          0.3 0.3 0.3 0.3 0.3 0.3 0.3 0.3 0.3 0.3 0.3 0.3
          0.3 0.3 0.3 0.3 0.3 0.3 0.3 0.3 0.3 0.3 0.3 0.3
          0.3 0.3 0.3 0.3 0.3 0.3 0.3 0.3 0.3 0.3 0.3 0.3
          0.3 0.3 0.3 0.3 0.3 0.3 0.3 0.3 0.3 0.3 0.3 0.3
          0.3 0.3 0.3 0.3 0.3 0.3 0.3 0.3 0.3 0.3 0.3 0.3
          0.3 0.3 0.3 0.3 0.3 0.3 0.3 0.3 0.3 0.3 0.3 0.3
          0.3 0.3 0.3 0.3 0.3 0.3 0.3 0.3 0.3 0.3 0.3 0.3
          0.3 0.3 0.3 0.3 0.3 0.3 0.3 0.3 0.3 0.3 0.3 0.3
          0.3 0.3 0.3 0.3 0.3 0.3 0.3 0.3 0.3 0.3 0.3 0.3
          0.3 0.3 0.3 0.3 0.3 0.3 0.3 0.3 0.3 0.3 0.3 0.3
          0.3 0.3 0.3 0.3 0.3 0.3 0.3 0.3 0.3 0.3 0.3 0.3
          0.3 0.3 0.3 0.3 0.3 0.3 0.3 0.3 0.3 0.3 0.3 0.3
          0.3 0.3 0.3 0.3 0.3 0.3 0.3 0.3 0.3 0.3 0.3 0.3
          0.3 0.3 0.3 0.3 0.3 0.3 0.3 0.3 0.3 0.3 0.3 0.3
          0.3 0.3 0.3 0.3 0.3 0.3 0.3 0.3 0.3 0.3 0.3 0.3
          0.3 0.3 0.3 0.3 0.3 0.3 0.3 0.3 0.3 0.3 0.3 0.3
          0.3 0.3 0.3 0.3 0.3
        </DataArray>
        <DataArray type="Float32" Name="temperature" NumberOfComponents="1" format="ascii">
          293.15 293.15 293.15 293.15 293.15 293.15 293.15 293.15 293.15 293.15 293.15 293.15
          293.15 293.15 293.15 293.15 293.15 293.15 293.15 293.15 293.15 293.15 293.15 293.15
          293.15 293.15 293.15 293.15 293.15 293.15 293.15 293.15 293.15 293.15 293.15 293.15
          293.15 293.15 293.15 293.15 293.15 293.15 293.15 293.15 293.15 293.15 293.15 293.15
          293.15 293.15 293.15 293.15 293.15 293.15 293.15 293.15 293.15 293.15 293.15 293.15
          293.15 293.15 293.15 293.15 293.15 293.15 293.15 293.15 293.15 293.15 293.15 293.15
          293.15 293.15 293.15 293.15 293.15 293.15 293.15 293.15 293.15 293.15 293.15 293.15
          393.15 393.15 393.15 293.15 293.15 293.15 293.15 293.15 293.15 293.15 293.15 293.15
          293.15 293.15 293.15 293.15 293.15 293.15 293.15 293.15 293.15 293.15 293.15 293.15
          293.15 393.15 393.15 393.15 293.15 293.15 293.15 293.15 293.15 293.15 293.15 293.15
          293.15 293.15 293.15 293.15 293.15 293.15 293.15 293.15 293.15 293.15 293.15 293.15
          293.15 293.15 393.15 393.15 393.15 293.15 293.15 293.15 293.15 293.15 293.15 293.15
          293.15 293.15 293.15 293.15 293.15 293.15 293.15 293.15 293.15 293.15 293.15 293.15
          293.15 293.15 293.15 393.15 393.15 393.15 293.15 293.15 293.15 293.15 293.15 293.15
          293.15 293.15 293.15 293.15 293.15 293.15 293.15 293.15 293.15 293.15 293.15 293.15
          293.15 293.15 293.15 293.15 393.15 393.15 393.15 293.15 293.15 293.15 293.15 293.15
          293.15 293.15 293.15 293.15 293.15 293.15 293.15 293.15 293.15 293.15 293.15 293.15
          293.15 293.15 293.15 293.15 293.15 393.15 393.15 393.15 293.15 293.15 293.15 293.15
          293.15 293.15 293.15 293.15 293.15 293.15 293.15 293.15 293.15 293.15 293.15 293.15
          293.15 293.15 293.15 293.15 293.15 293.15 393.15 393.15 393.15 293.15 293.15 293.15
          293.15 293.15 293.15 293.15 293.15 293.15 293.15 293.15 293.15 293.15 293.15 293.15
          293.15 293.15 293.15 293.15 293.15 293.15 293.15 393.15 393.15 393.15 293.15 293.15
          293.15 293.15 293.15 293.15 293.15 293.15 293.15 293.15 293.15 293.15 293.15 293.15
          293.15 293.15 293.15 293.15 293.15 293.15 293.15 293.15 393.15 393.15 393.15 293.15
          293.15 293.15 293.15 293.15 293.15 293.15 293.15 293.15 293.15 293.15 293.15 293.15
          293.15 293.15 293.15 293.15 293.15 293.15 293.15 293.15 293.15 393.15 393.15 393.15
          293.15 293.15 293.15 293.15 293.15 293.15 293.15 293.15 293.15 293.15 293.15 293.15
          293.15 293.15 293.15 293.15 293.15 293.15 293.15 293.15 293.15 293.15 393.15 393.15
          393.15 293.15 293.15 293.15 293.15 293.15 293.15 293.15 293.15 293.15 293.15 293.15
          293.15 293.15 293.15 293.15 293.15 293.15 293.15 293.15 293.15 293.15 293.15 293.15
          293.15 293.15 293.15 293.15 293.15 293.15 293.15 293.15 293.15 293.15 293.15 293.15
          293.15 293.15 293.15 293.15 293.15 293.15 293.15 293.15 293.15 293.15 293.15 293.15
          293.15 293.15 293.15 293.15 293.15 293.15 293.15 293.15 293.15 293.15 293.15 293.15
          293.15 293.15 293.15 293.15 293.15 293.15 293.15 293.15 293.15 293.15 293.15 293.15
          293.15 293.15 293.15 293.15 293.15 293.15 293.15 293.15 293.15 293.15 293.15 293.15
          293.15 293.15 293.15 293.15 293.15
        </DataArray>
        <DataArray type="Float32" Name="moleFrac_l^Brine" NumberOfComponents="1" format="ascii">