<?xml version="1.0"?>
<VTKFile type="UnstructuredGrid" version="0.1" byte_order="LittleEndian">
  <UnstructuredGrid>
    <Piece NumberOfCells="384" NumberOfPoints="425">
      <PointData Scalars="moleFrac_l^Brine">
        <DataArray type="Float32" Name="moleFrac_l^Brine" NumberOfComponents="1" format="ascii">
          0.995 0.995 0.995 0.995 0.995 0.995 0.995 0.995 0.995 0.995 0.995 0.995
          0.995 0.995 0.995 0.995 0.995 0.995 0.995 0.995 0.995 0.995 0.995 0.995
          0.995 0.995 0.995 0.995 0.995 0.995 0.995 0.995 0.995 0.995 0.995 0.995
          0.995 0.995 0.995 0.995 0.995 0.995 0.995 0.995 0.995 0.995 0.995 0.995
          0.995 0.994983 0.995 0.995 0.995 0.995 0.995 0.995 0.995 0.995 0.995 0.995
          0.995 0.995 0.995 0.995 0.995 0.995 0.995 0.995 0.995 0.995 0.995 0.995
          0.995 0.994983 0.989565 0.995 0.995 0.995 0.995 0.995 0.995 0.995 0.995 0.995
          0.995 0.995 0.995 0.995 0.995 0.995 0.995 0.995 0.995 0.995 0.995 0.995
          0.995 0.995 0.994947 0.984179 0.995 0.995 0.995 0.995 0.995 0.995 0.995 0.995
          0.995 0.995 0.995 0.995 0.995 0.995 0.995 0.995 0.995 0.995 0.995 0.995
          0.995 0.995 0.995 0.994943 0.984179 0.995 0.995 0.995 0.995 0.995 0.995 0.995
          0.995 0.995 0.995 0.995 0.995 0.995 0.995 0.995 0.995 0.995 0.995 0.995
          0.995 0.995 0.995 0.995 0.994948 0.984179 0.995 0.995 0.995 0.995 0.995 0.995
          0.995 0.995 0.995 0.995 0.995 0.995 0.995 0.995 0.995 0.995 0.995 0.995
          0.995 0.995 0.995 0.995 0.995 0.994984 0.989564 0.995 0.995 0.995 0.995 0.995
          0.995 0.995 0.995 0.995 0.995 0.995 0.995 0.995 0.995 0.995 0.995 0.995
          0.995 0.995 0.995 0.995 0.995 0.995 0.995 0.994981 0.995 0.995 0.995 0.995
          0.995 0.995 0.995 0.995 0.995 0.995 0.995 0.995 0.995 0.995 0.995 0.995
          0.995 0.995 0.995 0.995 0.995 0.995 0.995 0.995 0.995 0.995 0.995 0.995
          0.995 0.995 0.995 0.995 0.995 0.995 0.995 0.995 0.995 0.995 0.995 0.995
          0.995 0.995 0.995 0.995 0.995 0.995 0.995 0.995 0.995 0.995 0.995 0.995
          0.995 0.995 0.995 0.995 0.995 0.995 0.995 0.995 0.995 0.995 0.995 0.995
          0.995 0.995 0.995 0.995 0.995 0.995 0.995 0.995 0.995 0.995 0.995 0.995
          0.995 0.995 0.995 0.995 0.995 0.995 0.995 0.995 0.995 0.995 0.995 0.995
          0.995 0.995 0.995 0.995 0.995 0.995 0.995 0.995 0.995 0.995 0.995 0.995
          0.995 0.995 0.995 0.995 0.995 0.995 0.995 0.995 0.995 0.995 0.995 0.995
          0.995 0.995 0.995 0.995 0.995 0.995 0.995 0.995 0.995 0.995 0.995 0.995
          0.995 0.995 0.995 0.995 0.995 0.995 0.995 0.995 0.995 0.995 0.995 0.995
          0.995 0.995 0.995 0.995 0.995 0.995 0.995 0.995 0.995 0.995 0.995 0.995
          0.995 0.995 0.995 0.995 0.995 0.995 0.995 0.995 0.995 0.995 0.995 0.995
          0.995 0.995 0.995 0.995 0.995 0.995 0.995 0.995 0.995 0.995 0.995 0.995
          0.995 0.995 0.995 0.995 0.995 0.995 0.995 0.995 0.995 0.995 0.995 0.995
          0.995 0.995 0.995 0.995 0.995 0.995 0.995 0.995 0.995 0.995 0.995 0.995
          0.995 0.995 0.995 0.995 0.995 0.995 0.995 0.995 0.995 0.995 0.995 0.995
          0.995 0.995 0.995 0.995 0.995 0.995 0.995 0.995 0.995 0.995 0.995 0.995
          0.995 0.995 0.995 0.995 0.995
        </DataArray>
        <DataArray type="Float32" Name="moleFrac_l^CO2" NumberOfComponents="1" format="ascii">
          0.005 0.005 0.005 0.005 0.005 0.005 0.005 0.005 0.005 0.005 0.005 0.005
          0.005 0.005 0.005 0.005 0.005 0.005 0.005 0.005 0.005 0.005 0.005 0.005
          0.005 0.005 0.005 0.005 0.005 0.005 0.005 0.005 0.005 0.005 0.005 0.005
          0.005 0.005 0.005 0.005 0.005 0.005 0.005 0.005 0.005 0.005 0.005 0.00500004
          0.00500002 0.00501701 0.005 0.005 0.005 0.005 0.005 0.005 0.005 0.005 0.005 0.005
          0.005 0.005 0.005 0.005 0.005 0.005 0.005 0.005 0.005 0.005 0.005 0.005
          0.00500004 0.00501671 0.0104346 0.005 0.005 0.005 0.005 0.005 0.005 0.005 0.005 0.005
          0.005 0.005 0.005 0.005 0.005 0.005 0.005 0.005 0.005 0.005 0.005 0.005
          0.005 0.00500016 0.00505307 0.0158208 0.005 0.005 0.005 0.005 0.005 0.005 0.005 0.005
          0.005 0.005 0.005 0.005 0.005 0.005 0.005 0.005 0.005 0.005 0.005 0.005
          0.005 0.005 0.00500018 0.00505701 0.0158209 0.005 0.005 0.005 0.005 0.005 0.005 0.005
          0.005 0.005 0.005 0.005 0.005 0.005 0.005 0.005 0.005 0.005 0.005 0.005
          0.005 0.005 0.005 0.00500015 0.0050524 0.0158211 0.005 0.005 0.005 0.005 0.005 0.005
          0.005 0.005 0.005 0.005 0.005 0.005 0.005 0.005 0.005 0.005 0.005 0.005
          0.005 0.005 0.005 0.005 0.00500004 0.0050161 0.0104355 0.005 0.005 0.005 0.005 0.005
          0.005 0.005 0.005 0.005 0.005 0.005 0.005 0.005 0.005 0.005 0.005 0.005
          0.005 0.005 0.005 0.005 0.005 0.005 0.00500004 0.00501904 0.005 0.005 0.005 0.005
          0.005 0.005 0.005 0.005 0.005 0.005 0.005 0.005 0.005 0.005 0.005 0.005
          0.005 0.005 0.005 0.005 0.005 0.005 0.005 0.005 0.00500002 0.005 0.005 0.005
          0.005 0.005 0.005 0.005 0.005 0.005 0.005 0.005 0.005 0.005 0.005 0.005
          0.005 0.005 0.005 0.005 0.005 0.005 0.005 0.005 0.005 0.005 0.005 0.005
          0.005 0.005 0.005 0.005 0.005 0.005 0.005 0.005 0.005 0.005 0.005 0.005
          0.005 0.005 0.005 0.005 0.005 0.005 0.005 0.005 0.005 0.005 0.005 0.005
          0.005 0.005 0.005 0.005 0.005 0.005 0.005 0.005 0.005 0.005 0.005 0.005
          0.005 0.005 0.005 0.005 0.005 0.005 0.005 0.005 0.005 0.005 0.005 0.005
          0.005 0.005 0.005 0.005 0.005 0.005 0.005 0.005 0.005 0.005 0.005 0.005
          0.005 0.005 0.005 0.005 0.005 0.005 0.005 0.005 0.005 0.005 0.005 0.005
          0.005 0.005 0.005 0.005 0.005 0.005 0.005 0.005 0.005 0.005 0.005 0.005
          0.005 0.005 0.005 0.005 0.005 0.005 0.005 0.005 0.005 0.005 0.005 0.005
          0.005 0.005 0.005 0.005 0.005 0.005 0.005 0.005 0.005 0.005 0.005 0.005
          0.005 0.005 0.005 0.005 0.005 0.005 0.005 0.005 0.005 0.005 0.005 0.005
          0.005 0.005 0.005 0.005 0.005 0.005 0.005 0.005 0.005 0.005 0.005 0.005
          0.005 0.005 0.005 0.005 0.005 0.005 0.005 0.005 0.005 0.005 0.005 0.005
          0.005 0.005 0.005 0.005 0.005 0.005 0.005 0.005 0.005 0.005 0.005 0.005
          0.005 0.005 0.005 0.005 0.005 0.005 0.005 0.005 0.005 0.005 0.005 0.005
          0.005 0.005 0.005 0.005 0.005
        </DataArray>
        <DataArray type="Float32" Name="moleFrac_g^Brine" NumberOfComponents="1" format="ascii">
          0.00327816 0.00327823 0.00327782 0.00327783 0.00327825 0.00327785 0.00327827 0.00327787 0.00327829 0.00327788 0.0032783 0.0032779
          0.00327832 0.00327791 0.00327833 0.00327792 0.00327833 0.00327793 0.00327834 0.00327794 0.00327835 0.00327795 0.00327837 0.00327796
          0.00327839 0.00327798 0.00327841 0.003278 0.00327843 0.00327802 0.00327845 0.00327804 0.00327847 0.00327806 0.00327849 0.00327808
          0.0032785 0.0032781 0.00327852 0.00327812 0.00327854 0.00327813 0.00327856 0.00327815 0.00327857 0.00327817 0.00327858 0.00327819
          0.00327859 0.0032782 0.00327742 0.00327743 0.00327745 0.00327746 0.00327748 0.00327749 0.0032775 0.00327752 0.00327948 0.0032834
          0.00328536 0.00328341 0.00327952 0.00327759 0.00327761 0.00327763 0.00327765 0.00327767 0.00327769 0.00327771 0.00327773 0.00327774
          0.00327776 0.0032778 0.00330749 0.00327702 0.00327703 0.00327705 0.00327706 0.00327708 0.00327709 0.0032771 0.00327712 0.00328301
          0.0296245 0.0296442 0.0294027 0.00328302 0.00327719 0.00327721 0.00327723 0.00327725 0.00327726 0.00327728 0.0032773 0.00327732
          0.00327734 0.00327736 0.00327742 0.00333647 0.00327662 0.00327663 0.00327664 0.00327666 0.00327667 0.00327669 0.0032767 0.00327673
          0.00329281 0.0297146 0.0297609 0.0295785 0.00328458 0.00327679 0.0032768 0.00327682 0.00327684 0.00327686 0.00327688 0.00327689
          0.00327691 0.00327693 0.00327695 0.00327702 0.00333606 0.00327621 0.00327622 0.00327624 0.00327625 0.00327627 0.00327628 0.0032763
          0.00327634 0.00329786 0.0297092 0.0297554 0.0296059 0.00328419 0.00327638 0.0032764 0.00327642 0.00327643 0.00327645 0.00327647
          0.00327648 0.0032765 0.00327652 0.00327654 0.0032766 0.00333562 0.00327581 0.00327582 0.00327583 0.00327585 0.00327586 0.00327588
          0.0032759 0.00327596 0.00330127 0.0297034 0.0297496 0.0296258 0.0032838 0.00327598 0.00327599 0.00327601 0.00327602 0.00327604
          0.00327606 0.00327607 0.00327609 0.00327611 0.00327612 0.00327617 0.00330582 0.0032754 0.00327541 0.00327543 0.00327544 0.00327546
          0.00327547 0.00327549 0.00327558 0.00330701 0.0296976 0.0297439 0.0296524 0.00328341 0.00327558 0.00327559 0.0032756 0.00327562
          0.00327563 0.00327565 0.00327566 0.00327568 0.00327569 0.00327571 0.00327573 0.00327574 0.003275 0.00327501 0.00327502 0.00327503
          0.00327505 0.00327507 0.00327509 0.00327521 0.00332004 0.0296918 0.0297382 0.0296885 0.00328567 0.00327518 0.00327518 0.00327519
          0.00327521 0.00327522 0.00327524 0.00327525 0.00327527 0.00327528 0.00327529 0.0032753 0.00327531 0.00327396 0.00327397 0.00327399
          0.003274 0.00327402 0.00327404 0.00327406 0.0032741 0.00328569 0.0296801 0.0297266 0.0296803 0.00328239 0.00327415 0.00327415
          0.00327416 0.00327417 0.00327419 0.0032742 0.00327421 0.00327423 0.00327424 0.00327425 0.00327425 0.00327426 0.00327356 0.00327357
          0.00327359 0.0032736 0.00327362 0.00327364 0.00327366 0.00327369 0.00328413 0.0296741 0.0297206 0.0296723 0.0032816 0.00327375
          0.00327375 0.00327376 0.00327377 0.00327378 0.00327379 0.0032738 0.00327381 0.00327382 0.00327383 0.00327383 0.00327383 0.00327315
          0.00327317 0.00327318 0.0032732 0.00327322 0.00327324 0.00327326 0.00327329 0.00328343 0.0296681 0.0297146 0.0296656 0.00328119
          0.00327334 0.00327335 0.00327335 0.00327336 0.00327337 0.00327338 0.00327339 0.00327339 0.0032734 0.00327341 0.00327341 0.00327341
          0.00327275 0.00327276 0.00327278 0.0032728 0.00327282 0.00327284 0.00327286 0.00327289 0.00328327 0.0296621 0.0297086 0.0296606
          0.0032808 0.00327294 0.00327294 0.00327294 0.00327295 0.00327296 0.00327296 0.00327297 0.00327298 0.00327298 0.00327299 0.00327299
          0.00327299 0.00327234 0.00327236 0.00327237 0.00327239 0.00327241 0.00327243 0.00327245 0.00327248 0.00328229 0.0296215 0.0296563
          0.0296216 0.00327901 0.00327253 0.00327253 0.00327254 0.00327254 0.00327255 0.00327255 0.00327256 0.00327256 0.00327257 0.00327257
          0.00327258 0.00327258 0.00327193 0.00327195 0.00327197 0.00327198 0.003272 0.00327202 0.00327204 0.00327207 0.00327405 0.00328011
          0.00328136 0.00327949 0.00327408 0.00327212 0.00327212 0.00327213 0.00327213 0.00327213 0.00327214 0.00327214 0.00327215 0.00327215
          0.00327216 0.00327216 0.00327216 0.00327153 0.00327155 0.00327156 0.00327157 0.00327159 0.00327161 0.00327163 0.00327165 0.00327167
          0.00327169 0.00327171 0.00327171 0.00327171 0.00327171 0.00327171 0.00327171 0.00327172 0.00327172 0.00327173 0.00327173 0.00327174
          0.00327174 0.00327174 0.00327174 0.00327174 0.00327118 0.00327115 0.00327115 0.00327116 0.00327118 0.0032712 0.00327122 0.00327124
          0.00327126 0.00327127 0.00327128 0.00327129 0.00327129 0.0032713 0.0032713 0.0032713 0.0032713 0.00327131 0.00327131 0.00327132
          0.00327132 0.00327133 0.00327133 0.00327133 0.00327133
        </DataArray>
        <DataArray type="Float32" Name="moleFrac_g^CO2" NumberOfComponents="1" format="ascii">
          0.259407 0.259404 0.259424 0.259423 0.259403 0.259422 0.259402 0.259421 0.259401 0.259421 0.259401 0.25942
          0.2594 0.25942 0.2594 0.259419 0.2594 0.259419 0.259399 0.259419 0.259399 0.259418 0.259398 0.259418
          0.259397 0.259417 0.259397 0.259416 0.259396 0.259415 0.259395 0.259414 0.259394 0.259413 0.259393 0.259412
          0.259392 0.259411 0.259392 0.259411 0.259391 0.25941 0.25939 0.259409 0.25939 0.259408 0.259389 0.25941
          0.25939 0.260291 0.259443 0.259442 0.259441 0.259441 0.25944 0.259439 0.259439 0.259438 0.259466 0.259522
          0.25955 0.259521 0.259464 0.259435 0.259434 0.259433 0.259432 0.259432 0.259431 0.25943 0.259429 0.259428
          0.25943 0.260295 0.542824 0.259461 0.259461 0.25946 0.25946 0.259459 0.259458 0.259458 0.259457 0.259541
          0.301834 0.301777 0.302453 0.259539 0.259454 0.259453 0.259452 0.259452 0.259451 0.25945 0.259449 0.259448
          0.259448 0.259455 0.262202 0.82523 0.25948 0.25948 0.259479 0.259479 0.259478 0.259477 0.259477 0.259476
          0.259706 0.301685 0.301554 0.302066 0.259586 0.259473 0.259472 0.259471 0.259471 0.25947 0.259469 0.259468
          0.259468 0.259467 0.259475 0.262426 0.825299 0.259499 0.259499 0.259498 0.259497 0.259497 0.259496 0.259495
          0.259495 0.259803 0.301806 0.301675 0.302094 0.259605 0.259492 0.259491 0.25949 0.25949 0.259489 0.259488
          0.259487 0.259487 0.259486 0.259493 0.262206 0.825367 0.259518 0.259517 0.259517 0.259516 0.259516 0.259515
          0.259514 0.259514 0.259876 0.301928 0.301797 0.302144 0.259623 0.259511 0.25951 0.259509 0.259509 0.259508
          0.259507 0.259507 0.259506 0.259505 0.259506 0.26034 0.54304 0.259537 0.259536 0.259536 0.259535 0.259534
          0.259534 0.259533 0.259533 0.259983 0.30205 0.301918 0.302175 0.259642 0.259529 0.259529 0.259528 0.259528
          0.259527 0.259526 0.259526 0.259525 0.259524 0.259524 0.259525 0.260513 0.259556 0.259555 0.259555 0.259554
          0.259553 0.259553 0.259552 0.259552 0.260193 0.302172 0.302039 0.302178 0.259699 0.259548 0.259548 0.259547
          0.259546 0.259546 0.259545 0.259544 0.259544 0.259543 0.259543 0.259542 0.259543 0.259525 0.259525 0.259524
          0.259524 0.259523 0.259522 0.259521 0.25952 0.259685 0.30224 0.302107 0.302236 0.259636 0.259518 0.259517
          0.259517 0.259516 0.259516 0.259515 0.259514 0.259514 0.259513 0.259513 0.259513 0.259512 0.259544 0.259544
          0.259543 0.259542 0.259542 0.259541 0.25954 0.259539 0.259687 0.302367 0.302235 0.30237 0.25965 0.259537
          0.259536 0.259536 0.259535 0.259535 0.259534 0.259534 0.259534 0.259533 0.259533 0.259533 0.259532 0.259564
          0.259563 0.259562 0.259561 0.259561 0.25956 0.259559 0.259558 0.259702 0.302493 0.302361 0.302498 0.259669
          0.259555 0.259555 0.259555 0.259555 0.259554 0.259554 0.259553 0.259553 0.259553 0.259553 0.259552 0.259552
          0.259583 0.259582 0.259581 0.25958 0.25958 0.259579 0.259578 0.259577 0.259725 0.302619 0.302487 0.302621
          0.259688 0.259574 0.259574 0.259574 0.259574 0.259573 0.259573 0.259573 0.259573 0.259572 0.259572 0.259572
          0.259572 0.259602 0.259601 0.2596 0.259599 0.259599 0.259598 0.259597 0.259596 0.259735 0.302842 0.302741
          0.302838 0.259687 0.259593 0.259593 0.259593 0.259593 0.259593 0.259592 0.259592 0.259592 0.259592 0.259592
          0.259591 0.259591 0.25962 0.25962 0.259619 0.259618 0.259617 0.259617 0.259616 0.259615 0.259642 0.259728
          0.259745 0.259718 0.259641 0.259612 0.259612 0.259612 0.259612 0.259612 0.259612 0.259611 0.259611 0.259611
          0.259611 0.259611 0.259611 0.259639 0.259638 0.259638 0.259637 0.259636 0.259636 0.259635 0.259634 0.259633
          0.259632 0.259632 0.259632 0.259631 0.259631 0.259631 0.259631 0.259631 0.259631 0.259631 0.259631 0.25963
          0.25963 0.25963 0.25963 0.25963 0.259656 0.259657 0.259657 0.259657 0.259656 0.259655 0.259654 0.259653
          0.259653 0.259652 0.259651 0.259651 0.259651 0.259651 0.259651 0.259651 0.25965 0.25965 0.25965 0.25965
          0.25965 0.25965 0.259649 0.259649 0.259649
        </DataArray>
      </PointData>
      <Points>
        <DataArray type="Float32" Name="Coordinates" NumberOfComponents="3" format="ascii">
          0 0 0 2.5 0 0 0 2.5 0 2.5 2.5 0
          5 0 0 5 2.5 0 7.5 0 0 7.5 2.5 0
          10 0 0 10 2.5 0 12.5 0 0 12.5 2.5 0
          15 0 0 15 2.5 0 17.5 0 0 17.5 2.5 0
          20 0 0 20 2.5 0 22.5 0 0 22.5 2.5 0
          25 0 0 25 2.5 0 27.5 0 0 27.5 2.5 0
          30 0 0 30 2.5 0 32.5 0 0 32.5 2.5 0
          35 0 0 35 2.5 0 37.5 0 0 37.5 2.5 0
          40 0 0 40 2.5 0 42.5 0 0 42.5 2.5 0
          45 0 0 45 2.5 0 47.5 0 0 47.5 2.5 0
          50 0 0 50 2.5 0 52.5 0 0 52.5 2.5 0
          55 0 0 55 2.5 0 57.5 0 0 57.5 2.5 0
          60 0 0 60 2.5 0 0 5 0 2.5 5 0
          5 5 0 7.5 5 0 10 5 0 12.5 5 0
          15 5 0 17.5 5 0 20 5 0 22.5 5 0
          25 5 0 27.5 5 0 30 5 0 32.5 5 0
          35 5 0 37.5 5 0 40 5 0 42.5 5 0
          45 5 0 47.5 5 0 50 5 0 52.5 5 0
          55 5 0 57.5 5 0 60 5 0 0 7.5 0
          2.5 7.5 0 5 7.5 0 7.5 7.5 0 10 7.5 0
          12.5 7.5 0 15 7.5 0 17.5 7.5 0 20 7.5 0
          22.5 7.5 0 25 7.5 0 27.5 7.5 0 30 7.5 0
          32.5 7.5 0 35 7.5 0 37.5 7.5 0 40 7.5 0
          42.5 7.5 0 45 7.5 0 47.5 7.5 0 50 7.5 0
          52.5 7.5 0 55 7.5 0 57.5 7.5 0 60 7.5 0
          0 10 0 2.5 10 0 5 10 0 7.5 10 0
          10 10 0 12.5 10 0 15 10 0 17.5 10 0
          20 10 0 22.5 10 0 25 10 0 27.5 10 0
          30 10 0 32.5 10 0 35 10 0 37.5 10 0
          40 10 0 42.5 10 0 45 10 0 47.5 10 0
          50 10 0 52.5 10 0 55 10 0 57.5 10 0
          60 10 0 0 12.5 0 2.5 12.5 0 5 12.5 0
          7.5 12.5 0 10 12.5 0 12.5 12.5 0 15 12.5 0
          17.5 12.5 0 20 12.5 0 22.5 12.5 0 25 12.5 0
          27.5 12.5 0 30 12.5 0 32.5 12.5 0 35 12.5 0
          37.5 12.5 0 40 12.5 0 42.5 12.5 0 45 12.5 0
          47.5 12.5 0 50 12.5 0 52.5 12.5 0 55 12.5 0
          57.5 12.5 0 60 12.5 0 0 15 0 2.5 15 0
          5 15 0 7.5 15 0 10 15 0 12.5 15 0
          15 15 0 17.5 15 0 20 15 0 22.5 15 0
          25 15 0 27.5 15 0 30 15 0 32.5 15 0
          35 15 0 37.5 15 0 40 15 0 42.5 15 0
          45 15 0 47.5 15 0 50 15 0 52.5 15 0
          55 15 0 57.5 15 0 60 15 0 0 17.5 0
          2.5 17.5 0 5 17.5 0 7.5 17.5 0 10 17.5 0
          12.5 17.5 0 15 17.5 0 17.5 17.5 0 20 17.5 0
          22.5 17.5 0 25 17.5 0 27.5 17.5 0 30 17.5 0
          32.5 17.5 0 35 17.5 0 37.5 17.5 0 40 17.5 0
          42.5 17.5 0 45 17.5 0 47.5 17.5 0 50 17.5 0
          52.5 17.5 0 55 17.5 0 57.5 17.5 0 60 17.5 0
          0 20 0 2.5 20 0 5 20 0 7.5 20 0
          10 20 0 12.5 20 0 15 20 0 17.5 20 0
          20 20 0 22.5 20 0 25 20 0 27.5 20 0
          30 20 0 32.5 20 0 35 20 0 37.5 20 0
          40 20 0 42.5 20 0 45 20 0 47.5 20 0
          50 20 0 52.5 20 0 55 20 0 57.5 20 0
          60 20 0 0 22.5 0 2.5 22.5 0 5 22.5 0
          7.5 22.5 0 10 22.5 0 12.5 22.5 0 15 22.5 0
          17.5 22.5 0 20 22.5 0 22.5 22.5 0 25 22.5 0
          27.5 22.5 0 30 22.5 0 32.5 22.5 0 35 22.5 0
          37.5 22.5 0 40 22.5 0 42.5 22.5 0 45 22.5 0
          47.5 22.5 0 50 22.5 0 52.5 22.5 0 55 22.5 0
          57.5 22.5 0 60 22.5 0 0 25 0 2.5 25 0
          5 25 0 7.5 25 0 10 25 0 12.5 25 0
          15 25 0 17.5 25 0 20 25 0 22.5 25 0
          25 25 0 27.5 25 0 30 25 0 32.5 25 0
          35 25 0 37.5 25 0 40 25 0 42.5 25 0
          45 25 0 47.5 25 0 50 25 0 52.5 25 0
          55 25 0 57.5 25 0 60 25 0 0 27.5 0
          2.5 27.5 0 5 27.5 0 7.5 27.5 0 10 27.5 0
          12.5 27.5 0 15 27.5 0 17.5 27.5 0 20 27.5 0
          22.5 27.5 0 25 27.5 0 27.5 27.5 0 30 27.5 0
          32.5 27.5 0 35 27.5 0 37.5 27.5 0 40 27.5 0
          42.5 27.5 0 45 27.5 0 47.5 27.5 0 50 27.5 0
          52.5 27.5 0 55 27.5 0 57.5 27.5 0 60 27.5 0
          0 30 0 2.5 30 0 5 30 0 7.5 30 0
          10 30 0 12.5 30 0 15 30 0 17.5 30 0
          20 30 0 22.5 30 0 25 30 0 27.5 30 0
          30 30 0 32.5 30 0 35 30 0 37.5 30 0
          40 30 0 42.5 30 0 45 30 0 47.5 30 0
          50 30 0 52.5 30 0 55 30 0 57.5 30 0
          60 30 0 0 32.5 0 2.5 32.5 0 5 32.5 0
          7.5 32.5 0 10 32.5 0 12.5 32.5 0 15 32.5 0
          17.5 32.5 0 20 32.5 0 22.5 32.5 0 25 32.5 0
          27.5 32.5 0 30 32.5 0 32.5 32.5 0 35 32.5 0
          37.5 32.5 0 40 32.5 0 42.5 32.5 0 45 32.5 0
          47.5 32.5 0 50 32.5 0 52.5 32.5 0 55 32.5 0
          57.5 32.5 0 60 32.5 0 0 35 0 2.5 35 0
          5 35 0 7.5 35 0 10 35 0 12.5 35 0
          15 35 0 17.5 35 0 20 35 0 22.5 35 0
          25 35 0 27.5 35 0 30 35 0 32.5 35 0
          35 35 0 37.5 35 0 40 35 0 42.5 35 0
          45 35 0 47.5 35 0 50 35 0 52.5 35 0
          55 35 0 57.5 35 0 60 35 0 0 37.5 0
          2.5 37.5 0 5 37.5 0 7.5 37.5 0 10 37.5 0
          12.5 37.5 0 15 37.5 0 17.5 37.5 0 20 37.5 0
          22.5 37.5 0 25 37.5 0 27.5 37.5 0 30 37.5 0
          32.5 37.5 0 35 37.5 0 37.5 37.5 0 40 37.5 0
          42.5 37.5 0 45 37.5 0 47.5 37.5 0 50 37.5 0
          52.5 37.5 0 55 37.5 0 57.5 37.5 0 60 37.5 0
          0 40 0 2.5 40 0 5 40 0 7.5 40 0
          10 40 0 12.5 40 0 15 40 0 17.5 40 0
          20 40 0 22.5 40 0 25 40 0 27.5 40 0
          30 40 0 32.5 40 0 35 40 0 37.5 40 0
          40 40 0 42.5 40 0 45 40 0 47.5 40 0
          50 40 0 52.5 40 0 55 40 0 57.5 40 0
          60 40 0
        </DataArray>
      </Points>
      <Cells>
        <DataArray type="Int32" Name="connectivity" NumberOfComponents="1" format="ascii">
          0 1 3 2 1 4 5 3 4 6 7 5
          6 8 9 7 8 10 11 9 10 12 13 11
          12 14 15 13 14 16 17 15 16 18 19 17
          18 20 21 19 20 22 23 21 22 24 25 23
          24 26 27 25 26 28 29 27 28 30 31 29
          30 32 33 31 32 34 35 33 34 36 37 35
          36 38 39 37 38 40 41 39 40 42 43 41
          42 44 45 43 44 46 47 45 46 48 49 47
          2 3 51 50 3 5 52 51 5 7 53 52
          7 9 54 53 9 11 55 54 11 13 56 55
          13 15 57 56 15 17 58 57 17 19 59 58
          19 21 60 59 21 23 61 60 23 25 62 61
          25 27 63 62 27 29 64 63 29 31 65 64
          31 33 66 65 33 35 67 66 35 37 68 67
          37 39 69 68 39 41 70 69 41 43 71 70
          43 45 72 71 45 47 73 72 47 49 74 73
          50 51 76 75 51 52 77 76 52 53 78 77
          53 54 79 78 54 55 80 79 55 56 81 80
          56 57 82 81 57 58 83 82 58 59 84 83
          59 60 85 84 60 61 86 85 61 62 87 86
          62 63 88 87 63 64 89 88 64 65 90 89
          65 66 91 90 66 67 92 91 67 68 93 92
          68 69 94 93 69 70 95 94 70 71 96 95
          71 72 97 96 72 73 98 97 73 74 99 98
          75 76 101 100 76 77 102 101 77 78 103 102
          78 79 104 103 79 80 105 104 80 81 106 105
          81 82 107 106 82 83 108 107 83 84 109 108
          84 85 110 109 85 86 111 110 86 87 112 111
          87 88 113 112 88 89 114 113 89 90 115 114
          90 91 116 115 91 92 117 116 92 93 118 117
          93 94 119 118 94 95 120 119 95 96 121 120
          96 97 122 121 97 98 123 122 98 99 124 123
          100 101 126 125 101 102 127 126 102 103 128 127
          103 104 129 128 104 105 130 129 105 106 131 130
          106 107 132 131 107 108 133 132 108 109 134 133
          109 110 135 134 110 111 136 135 111 112 137 136
          112 113 138 137 113 114 139 138 114 115 140 139
          115 116 141 140 116 117 142 141 117 118 143 142
          118 119 144 143 119 120 145 144 120 121 146 145
          121 122 147 146 122 123 148 147 123 124 149 148
          125 126 151 150 126 127 152 151 127 128 153 152
          128 129 154 153 129 130 155 154 130 131 156 155
          131 132 157 156 132 133 158 157 133 134 159 158
          134 135 160 159 135 136 161 160 136 137 162 161
          137 138 163 162 138 139 164 163 139 140 165 164
          140 141 166 165 141 142 167 166 142 143 168 167
          143 144 169 168 144 145 170 169 145 146 171 170
          146 147 172 171 147 148 173 172 148 149 174 173
          150 151 176 175 151 152 177 176 152 153 178 177
          153 154 179 178 154 155 180 179 155 156 181 180
          156 157 182 181 157 158 183 182 158 159 184 183
          159 160 185 184 160 161 186 185 161 162 187 186
          162 163 188 187 163 164 189 188 164 165 190 189
          165 166 191 190 166 167 192 191 167 168 193 192
          168 169 194 193 169 170 195 194 170 171 196 195
          171 172 197 196 172 173 198 197 173 174 199 198
          175 176 201 200 176 177 202 201 177 178 203 202
          178 179 204 203 179 180 205 204 180 181 206 205
          181 182 207 206 182 183 208 207 183 184 209 208
          184 185 210 209 185 186 211 210 186 187 212 211
          187 188 213 212 188 189 214 213 189 190 215 214
          190 191 216 215 191 192 217 216 192 193 218 217
          193 194 219 218 194 195 220 219 195 196 221 220
          196 197 222 221 197 198 223 222 198 199 224 223
          200 201 226 225 201 202 227 226 202 203 228 227
          203 204 229 228 204 205 230 229 205 206 231 230
          206 207 232 231 207 208 233 232 208 209 234 233
          209 210 235 234 210 211 236 235 211 212 237 236
          212 213 238 237 213 214 239 238 214 215 240 239
          215 216 241 240 216 217 242 241 217 218 243 242
          218 219 244 243 219 220 245 244 220 221 246 245
          221 222 247 246 222 223 248 247 223 224 249 248
          225 226 251 250 226 227 252 251 227 228 253 252
          228 229 254 253 229 230 255 254 230 231 256 255
          231 232 257 256 232 233 258 257 233 234 259 258
          234 235 260 259 235 236 261 260 236 237 262 261
          237 238 263 262 238 239 264 263 239 240 265 264
          240 241 266 265 241 242 267 266 242 243 268 267
          243 244 269 268 244 245 270 269 245 246 271 270
          246 247 272 271 247 248 273 272 248 249 274 273
          250 251 276 275 251 252 277 276 252 253 278 277
          253 254 279 278 254 255 280 279 255 256 281 280
          256 257 282 281 257 258 283 282 258 259 284 283
          259 260 285 284 260 261 286 285 261 262 287 286
          262 263 288 287 263 264 289 288 264 265 290 289
          265 266 291 290 266 267 292 291 267 268 293 292
          268 269 294 293 269 270 295 294 270 271 296 295
          271 272 297 296 272 273 298 297 273 274 299 298
          275 276 301 300 276 277 302 301 277 278 303 302
          278 279 304 303 279 280 305 304 280 281 306 305
          281 282 307 306 282 283 308 307 283 284 309 308
          284 285 310 309 285 286 311 310 286 287 312 311
          287 288 313 312 288 289 314 313 289 290 315 314
          290 291 316 315 291 292 317 316 292 293 318 317
          293 294 319 318 294 295 320 319 295 296 321 320
          296 297 322 321 297 298 323 322 298 299 324 323
          300 301 326 325 301 302 327 326 302 303 328 327
          303 304 329 328 304 305 330 329 305 306 331 330
          306 307 332 331 307 308 333 332 308 309 334 333
          309 310 335 334 310 311 336 335 311 312 337 336
          312 313 338 337 313 314 339 338 314 315 340 339
          315 316 341 340 316 317 342 341 317 318 343 342
          318 319 344 343 319 320 345 344 320 321 346 345
          321 322 347 346 322 323 348 347 323 324 349 348
          325 326 351 350 326 327 352 351 327 328 353 352
          328 329 354 353 329 330 355 354 330 331 356 355
          331 332 357 356 332 333 358 357 333 334 359 358
          334 335 360 359 335 336 361 360 336 337 362 361
          337 338 363 362 338 339 364 363 339 340 365 364
          340 341 366 365 341 342 367 366 342 343 368 367
          343 344 369 368 344 345 370 369 345 346 371 370
          346 347 372 371 347 348 373 372 348 349 374 373
          350 351 376 375 351 352 377 376 352 353 378 377
          353 354 379 378 354 355 380 379 355 356 381 380
          356 357 382 381 357 358 383 382 358 359 384 383
          359 360 385 384 360 361 386 385 361 362 387 386
          362 363 388 387 363 364 389 388 364 365 390 389
          365 366 391 390 366 367 392 391 367 368 393 392
          368 369 394 393 369 370 395 394 370 371 396 395
          371 372 397 396 372 373 398 397 373 374 399 398
          375 376 401 400 376 377 402 401 377 378 403 402
          378 379 404 403 379 380 405 404 380 381 406 405
          381 382 407 406 382 383 408 407 383 384 409 408
          384 385 410 409 385 386 411 410 386 387 412 411
          387 388 413 412 388 389 414 413 389 390 415 414
          390 391 416 415 391 392 417 416 392 393 418 417
          393 394 419 418 394 395 420 419 395 396 421 420
          396 397 422 421 397 398 423 422 398 399 424 423
        </DataArray>
        <DataArray type="Int32" Name="offsets" NumberOfComponents="1" format="ascii">
          4 8 12 16 20 24 28 32 36 40 44 48
          52 56 60 64 68 72 76 80 84 88 92 96
          100 104 108 112 116 120 124 128 132 136 140 144
          148 152 156 160 164 168 172 176 180 184 188 192
          196 200 204 208 212 216 220 224 228 232 236 240
          244 248 252 256 260 264 268 272 276 280 284 288
          292 296 300 304 308 312 316 320 324 328 332 336
          340 344 348 352 356 360 364 368 372 376 380 384
          388 392 396 400 404 408 412 416 420 424 428 432
          436 440 444 448 452 456 460 464 468 472 476 480
          484 488 492 496 500 504 508 512 516 520 524 528
          532 536 540 544 548 552 556 560 564 568 572 576
          580 584 588 592 596 600 604 608 612 616 620 624
          628 632 636 640 644 648 652 656 660 664 668 672
          676 680 684 688 692 696 700 704 708 712 716 720
          724 728 732 736 740 744 748 752 756 760 764 768
          772 776 780 784 788 792 796 800 804 808 812 816
          820 824 828 832 836 840 844 848 852 856 860 864
          868 872 876 880 884 888 892 896 900 904 908 912
          916 920 924 928 932 936 940 944 948 952 956 960
          964 968 972 976 980 984 988 992 996 1000 1004 1008
          1012 1016 1020 1024 1028 1032 1036 1040 1044 1048 1052 1056
          1060 1064 1068 1072 1076 1080 1084 1088 1092 1096 1100 1104
          1108 1112 1116 1120 1124 1128 1132 1136 1140 1144 1148 1152
          1156 1160 1164 1168 1172 1176 1180 1184 1188 1192 1196 1200
          1204 1208 1212 1216 1220 1224 1228 1232 1236 1240 1244 1248
          1252 1256 1260 1264 1268 1272 1276 1280 1284 1288 1292 1296
          1300 1304 1308 1312 1316 1320 1324 1328 1332 1336 1340 1344