<?xml version="1.0"?>
<VTKFile type="UnstructuredGrid" version="0.1" byte_order="LittleEndian">
  <UnstructuredGrid>
    <Piece NumberOfCells="384" NumberOfPoints="425">
      <PointData Scalars="pressure_l">
        <DataArray type="Float32" Name="pressure_l" NumberOfComponents="1" format="ascii">
          2.63182e+07 2.63225e+07 2.62955e+07 2.62965e+07 2.63245e+07 2.62981e+07 2.6326e+07 2.62996e+07 2.63274e+07 2.63009e+07 2.63285e+07 2.63021e+07
          2.63296e+07 2.63032e+07 2.63306e+07 2.63041e+07 2.63314e+07 2.63049e+07 2.63322e+07 2.63057e+07 2.63332e+07 2.63065e+07 2.63343e+07 2.63077e+07
          2.63358e+07 2.63092e+07 2.63373e+07 2.63108e+07 2.63389e+07 2.63124e+07 2.63404e+07 2.6314e+07 2.6342e+07 2.63155e+07 2.63435e+07 2.6317e+07
          2.6345e+07 2.63185e+07 2.63464e+07 2.63199e+07 2.63478e+07 2.63214e+07 2.63492e+07 2.63228e+07 2.63504e+07 2.63241e+07 2.63514e+07 2.63252e+07
          2.63517e+07 2.63256e+07 2.62696e+07 2.62707e+07 2.6272e+07 2.62733e+07 2.62746e+07 2.62758e+07 2.62769e+07 2.62778e+07 2.62786e+07 2.62789e+07
          2.62796e+07 2.62807e+07 2.62826e+07 2.62843e+07 2.6286e+07 2.62875e+07 2.6289e+07 2.62905e+07 2.6292e+07 2.62935e+07 2.62949e+07 2.62964e+07
          2.62979e+07 2.62994e+07 2.6301e+07 2.62434e+07 2.62446e+07 2.62459e+07 2.62471e+07 2.62484e+07 2.62496e+07 2.62507e+07 2.62518e+07 2.62526e+07
          2.62527e+07 2.62531e+07 2.62536e+07 2.62561e+07 2.62579e+07 2.62596e+07 2.62611e+07 2.62626e+07 2.62641e+07 2.62655e+07 2.6267e+07 2.62685e+07
          2.627e+07 2.62717e+07 2.62736e+07 2.62766e+07 2.62172e+07 2.62184e+07 2.62197e+07 2.6221e+07 2.62222e+07 2.62235e+07 2.62247e+07 2.62259e+07
          2.6227e+07 2.62273e+07 2.62277e+07 2.62282e+07 2.623e+07 2.62317e+07 2.62333e+07 2.62348e+07 2.62362e+07 2.62377e+07 2.62391e+07 2.62405e+07
          2.6242e+07 2.62436e+07 2.62453e+07 2.62474e+07 2.62505e+07 2.6191e+07 2.61922e+07 2.61935e+07 2.61948e+07 2.61961e+07 2.61974e+07 2.61987e+07
          2.62001e+07 2.62014e+07 2.62018e+07 2.62023e+07 2.62027e+07 2.62042e+07 2.62057e+07 2.62071e+07 2.62085e+07 2.62098e+07 2.62112e+07 2.62126e+07
          2.6214e+07 2.62154e+07 2.62169e+07 2.62186e+07 2.62205e+07 2.62234e+07 2.61648e+07 2.6166e+07 2.61673e+07 2.61685e+07 2.61699e+07 2.61713e+07
          2.61727e+07 2.61742e+07 2.61758e+07 2.61763e+07 2.61768e+07 2.61772e+07 2.61784e+07 2.61796e+07 2.61809e+07 2.61822e+07 2.61835e+07 2.61848e+07
          2.61861e+07 2.61875e+07 2.61888e+07 2.61902e+07 2.61916e+07 2.6193e+07 2.61946e+07 2.61386e+07 2.61397e+07 2.6141e+07 2.61423e+07 2.61437e+07
          2.61451e+07 2.61467e+07 2.61484e+07 2.61502e+07 2.61508e+07 2.61513e+07 2.61517e+07 2.61526e+07 2.61536e+07 2.61547e+07 2.61558e+07 2.61571e+07
          2.61583e+07 2.61596e+07 2.61609e+07 2.61622e+07 2.61634e+07 2.61646e+07 2.61656e+07 2.6166e+07 2.61123e+07 2.61134e+07 2.61146e+07 2.61159e+07
          2.61173e+07 2.61188e+07 2.61205e+07 2.61223e+07 2.61245e+07 2.61255e+07 2.61261e+07 2.61264e+07 2.61266e+07 2.61274e+07 2.61284e+07 2.61295e+07
          2.61306e+07 2.61319e+07 2.61331e+07 2.61343e+07 2.61356e+07 2.61367e+07 2.61377e+07 2.61384e+07 2.61387e+07 2.60861e+07 2.60872e+07 2.60885e+07
          2.60898e+07 2.60913e+07 2.60928e+07 2.60946e+07 2.60965e+07 2.60988e+07 2.60997e+07 2.61003e+07 2.61007e+07 2.61008e+07 2.61014e+07 2.61022e+07
          2.61032e+07 2.61043e+07 2.61054e+07 2.61065e+07 2.61077e+07 2.61087e+07 2.61097e+07 2.61106e+07 2.61111e+07 2.61114e+07 2.606e+07 2.60612e+07
          2.60626e+07 2.6064e+07 2.60655e+07 2.60671e+07 2.60689e+07 2.60708e+07 2.60729e+07 2.60736e+07 2.60741e+07 2.60744e+07 2.6075e+07 2.60756e+07
          2.60763e+07 2.60771e+07 2.6078e+07 2.6079e+07 2.60799e+07 2.60808e+07 2.60817e+07 2.60825e+07 2.60831e+07 2.60836e+07 2.60837e+07 2.60338e+07
          2.60352e+07 2.60366e+07 2.6038e+07 2.60396e+07 2.60412e+07 2.6043e+07 2.6045e+07 2.6047e+07 2.60476e+07 2.60481e+07 2.60485e+07 2.60491e+07
          2.60496e+07 2.60502e+07 2.60509e+07 2.60517e+07 2.60525e+07 2.60533e+07 2.60541e+07 2.60548e+07 2.60554e+07 2.60559e+07 2.60562e+07 2.60564e+07
          2.60076e+07 2.60091e+07 2.60105e+07 2.6012e+07 2.60136e+07 2.60152e+07 2.6017e+07 2.6019e+07 2.60211e+07 2.60218e+07 2.60223e+07 2.60227e+07
          2.60231e+07 2.60236e+07 2.60241e+07 2.60247e+07 2.60253e+07 2.6026e+07 2.60267e+07 2.60274e+07 2.6028e+07 2.60285e+07 2.60289e+07 2.60291e+07
          2.60292e+07 2.59814e+07 2.59829e+07 2.59844e+07 2.59859e+07 2.59874e+07 2.59891e+07 2.59908e+07 2.59928e+07 2.59951e+07 2.59961e+07 2.59968e+07
          2.59971e+07 2.59972e+07 2.59975e+07 2.59979e+07 2.59984e+07 2.59989e+07 2.59995e+07 2.60001e+07 2.60007e+07 2.60012e+07 2.60017e+07 2.6002e+07
          2.60022e+07 2.60023e+07 2.59553e+07 2.59569e+07 2.59583e+07 2.59597e+07 2.59612e+07 2.59628e+07 2.59645e+07 2.59663e+07 2.59681e+07 2.597e+07
          2.59708e+07 2.59712e+07 2.5971e+07 2.59712e+07 2.59716e+07 2.5972e+07 2.59725e+07 2.59731e+07 2.59736e+07 2.59741e+07 2.59746e+07 2.5975e+07
          2.59752e+07 2.59754e+07 2.59755e+07 2.59294e+07 2.59311e+07 2.59322e+07 2.59335e+07 2.59349e+07 2.59364e+07 2.59381e+07 2.59397e+07 2.59413e+07
          2.59427e+07 2.59437e+07 2.59442e+07 2.59445e+07 2.59448e+07 2.59452e+07 2.59456e+07 2.59461e+07 2.59466e+07 2.59471e+07 2.59475e+07 2.5948e+07
          2.59483e+07 2.59486e+07 2.59488e+07 2.59488e+07 2.59067e+07 2.59051e+07 2.59059e+07 2.59071e+07 2.59085e+07 2.591e+07 2.59116e+07 2.59132e+07
          2.59147e+07 2.5916e+07 2.5917e+07 2.59176e+07 2.5918e+07 2.59184e+07 2.59187e+07 2.59191e+07 2.59196e+07 2.59201e+07 2.59206e+07 2.5921e+07
          2.59214e+07 2.59218e+07 2.59221e+07 2.59222e+07 2.59223e+07
        </DataArray>
        <DataArray type="Float32" Name="pressure_g" NumberOfComponents="1" format="ascii">
          2.63232e+07 2.63275e+07 2.63005e+07 2.63015e+07 2.63295e+07 2.63031e+07 2.6331e+07 2.63046e+07 2.63324e+07 2.63059e+07 2.63335e+07 2.63071e+07
          2.63346e+07 2.63082e+07 2.63356e+07 2.63091e+07 2.63364e+07 2.63099e+07 2.63372e+07 2.63107e+07 2.63382e+07 2.63115e+07 2.63393e+07 2.63127e+07
          2.63408e+07 2.63142e+07 2.63423e+07 2.63158e+07 2.63439e+07 2.63174e+07 2.63454e+07 2.6319e+07 2.6347e+07 2.63205e+07 2.63485e+07 2.6322e+07
          2.635e+07 2.63235e+07 2.63514e+07 2.63249e+07 2.63528e+07 2.63264e+07 2.63542e+07 2.63278e+07 2.63554e+07 2.63291e+07 2.63564e+07 2.63302e+07
          2.63567e+07 2.63306e+07 2.62746e+07 2.62757e+07 2.6277e+07 2.62783e+07 2.62796e+07 2.62808e+07 2.62819e+07 2.62828e+07 2.62836e+07 2.62839e+07
          2.62846e+07 2.62857e+07 2.62876e+07 2.62893e+07 2.6291e+07 2.62925e+07 2.6294e+07 2.62955e+07 2.6297e+07 2.62985e+07 2.62999e+07 2.63014e+07
          2.63029e+07 2.63044e+07 2.63061e+07 2.62484e+07 2.62496e+07 2.62509e+07 2.62521e+07 2.62534e+07 2.62546e+07 2.62557e+07 2.62568e+07 2.62576e+07
          2.62577e+07 2.62581e+07 2.62586e+07 2.62611e+07 2.62629e+07 2.62646e+07 2.62661e+07 2.62676e+07 2.62691e+07 2.62705e+07 2.6272e+07 2.62735e+07
          2.6275e+07 2.62767e+07 2.62786e+07 2.62817e+07 2.62222e+07 2.62234e+07 2.62247e+07 2.6226e+07 2.62272e+07 2.62285e+07 2.62297e+07 2.62309e+07
          2.6232e+07 2.62323e+07 2.62327e+07 2.62332e+07 2.6235e+07 2.62367e+07 2.62383e+07 2.62398e+07 2.62412e+07 2.62427e+07 2.62441e+07 2.62455e+07
          2.6247e+07 2.62486e+07 2.62503e+07 2.62524e+07 2.62556e+07 2.6196e+07 2.61972e+07 2.61985e+07 2.61998e+07 2.62011e+07 2.62024e+07 2.62037e+07
          2.62051e+07 2.62064e+07 2.62068e+07 2.62073e+07 2.62077e+07 2.62092e+07 2.62107e+07 2.62121e+07 2.62135e+07 2.62148e+07 2.62162e+07 2.62176e+07
          2.6219e+07 2.62204e+07 2.62219e+07 2.62236e+07 2.62255e+07 2.62285e+07 2.61698e+07 2.6171e+07 2.61723e+07 2.61735e+07 2.61749e+07 2.61763e+07
          2.61777e+07 2.61792e+07 2.61808e+07 2.61813e+07 2.61818e+07 2.61822e+07 2.61834e+07 2.61846e+07 2.61859e+07 2.61872e+07 2.61885e+07 2.61898e+07
          2.61911e+07 2.61925e+07 2.61938e+07 2.61952e+07 2.61966e+07 2.6198e+07 2.61997e+07 2.61436e+07 2.61447e+07 2.6146e+07 2.61473e+07 2.61487e+07
          2.61501e+07 2.61517e+07 2.61534e+07 2.61552e+07 2.61558e+07 2.61563e+07 2.61567e+07 2.61576e+07 2.61586e+07 2.61597e+07 2.61608e+07 2.61621e+07
          2.61633e+07 2.61646e+07 2.61659e+07 2.61672e+07 2.61684e+07 2.61696e+07 2.61706e+07 2.6171e+07 2.61173e+07 2.61184e+07 2.61196e+07 2.61209e+07
          2.61223e+07 2.61238e+07 2.61255e+07 2.61273e+07 2.61295e+07 2.61305e+07 2.61311e+07 2.61314e+07 2.61316e+07 2.61324e+07 2.61334e+07 2.61345e+07
          2.61356e+07 2.61369e+07 2.61381e+07 2.61393e+07 2.61406e+07 2.61417e+07 2.61427e+07 2.61434e+07 2.61437e+07 2.60961e+07 2.60972e+07 2.60985e+07
          2.60998e+07 2.61013e+07 2.61028e+07 2.61046e+07 2.61065e+07 2.61088e+07 2.61097e+07 2.61103e+07 2.61107e+07 2.61108e+07 2.61114e+07 2.61122e+07
          2.61132e+07 2.61143e+07 2.61154e+07 2.61165e+07 2.61177e+07 2.61187e+07 2.61197e+07 2.61206e+07 2.61211e+07 2.61214e+07 2.607e+07 2.60712e+07
          2.60726e+07 2.6074e+07 2.60755e+07 2.60771e+07 2.60789e+07 2.60808e+07 2.60829e+07 2.60836e+07 2.60841e+07 2.60844e+07 2.6085e+07 2.60856e+07
          2.60863e+07 2.60871e+07 2.6088e+07 2.6089e+07 2.60899e+07 2.60908e+07 2.60917e+07 2.60925e+07 2.60931e+07 2.60936e+07 2.60937e+07 2.60438e+07
          2.60452e+07 2.60466e+07 2.6048e+07 2.60496e+07 2.60512e+07 2.6053e+07 2.6055e+07 2.6057e+07 2.60576e+07 2.60581e+07 2.60585e+07 2.60591e+07
          2.60596e+07 2.60602e+07 2.60609e+07 2.60617e+07 2.60625e+07 2.60633e+07 2.60641e+07 2.60648e+07 2.60654e+07 2.60659e+07 2.60662e+07 2.60664e+07
          2.60176e+07 2.60191e+07 2.60205e+07 2.6022e+07 2.60236e+07 2.60252e+07 2.6027e+07 2.6029e+07 2.60311e+07 2.60318e+07 2.60323e+07 2.60327e+07
          2.60331e+07 2.60336e+07 2.60341e+07 2.60347e+07 2.60353e+07 2.6036e+07 2.60367e+07 2.60374e+07 2.6038e+07 2.60385e+07 2.60389e+07 2.60391e+07
          2.60392e+07 2.59914e+07 2.59929e+07 2.59944e+07 2.59959e+07 2.59974e+07 2.59991e+07 2.60008e+07 2.60028e+07 2.60051e+07 2.60061e+07 2.60068e+07
          2.60071e+07 2.60072e+07 2.60075e+07 2.60079e+07 2.60084e+07 2.60089e+07 2.60095e+07 2.60101e+07 2.60107e+07 2.60112e+07 2.60117e+07 2.6012e+07
          2.60122e+07 2.60123e+07 2.59653e+07 2.59669e+07 2.59683e+07 2.59697e+07 2.59712e+07 2.59728e+07 2.59745e+07 2.59763e+07 2.59781e+07 2.598e+07
          2.59808e+07 2.59812e+07 2.5981e+07 2.59812e+07 2.59816e+07 2.5982e+07 2.59825e+07 2.59831e+07 2.59836e+07 2.59841e+07 2.59846e+07 2.5985e+07
          2.59852e+07 2.59854e+07 2.59855e+07 2.59394e+07 2.59411e+07 2.59422e+07 2.59435e+07 2.59449e+07 2.59464e+07 2.59481e+07 2.59497e+07 2.59513e+07
          2.59527e+07 2.59537e+07 2.59542e+07 2.59545e+07 2.59548e+07 2.59552e+07 2.59556e+07 2.59561e+07 2.59566e+07 2.59571e+07 2.59575e+07 2.5958e+07
          2.59583e+07 2.59586e+07 2.59588e+07 2.59588e+07 2.59167e+07 2.59151e+07 2.59159e+07 2.59171e+07 2.59185e+07 2.592e+07 2.59216e+07 2.59232e+07
          2.59247e+07 2.5926e+07 2.5927e+07 2.59276e+07 2.5928e+07 2.59284e+07 2.59287e+07 2.59291e+07 2.59296e+07 2.59301e+07 2.59306e+07 2.5931e+07
          2.59314e+07 2.59318e+07 2.59321e+07 2.59322e+07 2.59323e+07
        </DataArray>
        <DataArray type="Float32" Name="density_l" NumberOfComponents="1" format="ascii">
          1080.19 1080.19 1080.18 1080.18 1080.19 1080.18 1080.19 1080.18 1080.19 1080.18 1080.19 1080.18
          1080.19 1080.18 1080.19 1080.18 1080.19 1080.18 1080.2 1080.18 1080.2 1080.18 1080.2 1080.18
          1080.2 1080.19 1080.2 1080.19 1080.2 1080.19 1080.2 1080.19 1080.2 1080.19 1080.2 1080.19
          1080.2 1080.19 1080.2 1080.19 1080.2 1080.19 1080.2 1080.19 1080.2 1080.19 1080.2 1080.19
          1080.2 1080.19 1080.17 1080.17 1080.17 1080.17 1080.17 1080.17 1080.17 1080.17 1080.17 1080.17
          1080.17 1080.17 1080.17 1080.17 1080.18 1080.18 1080.18 1080.18 1080.18 1080.18 1080.18 1080.18
          1080.18 1080.18 1080.18 1080.16 1080.16 1080.16 1080.16 1080.16 1080.16 1080.16 1080.16 1080.16
          1017.06 1017.06 1017.06 1080.16 1080.16 1080.16 1080.17 1080.17 1080.17 1080.17 1080.17 1080.17
          1080.17 1080.17 1080.17 1080.17 1080.15 1080.15 1080.15 1080.15 1080.15 1080.15 1080.15 1080.15
          1080.15 1017.05 1017.05 1017.05 1080.15 1080.15 1080.15 1080.15 1080.15 1080.16 1080.16 1080.16
          1080.16 1080.16 1080.16 1080.16 1080.16 1080.14 1080.14 1080.14 1080.14 1080.14 1080.14 1080.14
          1080.14 1080.14 1017.04 1017.04 1017.04 1080.14 1080.14 1080.14 1080.14 1080.14 1080.14 1080.14
          1080.15 1080.15 1080.15 1080.15 1080.15 1080.15 1080.12 1080.13 1080.13 1080.13 1080.13 1080.13
          1080.13 1080.13 1080.13 1017.03 1017.03 1017.03 1080.13 1080.13 1080.13 1080.13 1080.13 1080.13
          1080.13 1080.13 1080.13 1080.14 1080.14 1080.14 1080.14 1080.11 1080.11 1080.11 1080.12 1080.12
          1080.12 1080.12 1080.12 1080.12 1017.02 1017.02 1017.02 1080.12 1080.12 1080.12 1080.12 1080.12
          1080.12 1080.12 1080.12 1080.12 1080.12 1080.12 1080.12 1080.13 1080.1 1080.1 1080.1 1080.1
          1080.1 1080.11 1080.11 1080.11 1080.11 1017.01 1017.01 1017.01 1080.11 1080.11 1080.11 1080.11
          1080.11 1080.11 1080.11 1080.11 1080.11 1080.11 1080.11 1080.11 1080.11 1080.09 1080.09 1080.09
          1080.09 1080.09 1080.09 1080.1 1080.1 1080.1 1017 1017 1017 1080.1 1080.1 1080.1
          1080.1 1080.1 1080.1 1080.1 1080.1 1080.1 1080.1 1080.1 1080.1 1080.1 1080.08 1080.08
          1080.08 1080.08 1080.08 1080.08 1080.08 1080.09 1080.09 1016.99 1016.99 1016.99 1080.09 1080.09
          1080.09 1080.09 1080.09 1080.09 1080.09 1080.09 1080.09 1080.09 1080.09 1080.09 1080.09 1080.07
          1080.07 1080.07 1080.07 1080.07 1080.07 1080.07 1080.07 1080.08 1016.98 1016.98 1016.98 1080.08
          1080.08 1080.08 1080.08 1080.08 1080.08 1080.08 1080.08 1080.08 1080.08 1080.08 1080.08 1080.08
          1080.06 1080.06 1080.06 1080.06 1080.06 1080.06 1080.06 1080.06 1080.06 1016.97 1016.97 1016.97
          1080.07 1080.07 1080.07 1080.07 1080.07 1080.07 1080.07 1080.07 1080.07 1080.07 1080.07 1080.07
          1080.07 1080.05 1080.05 1080.05 1080.05 1080.05 1080.05 1080.05 1080.05 1080.05 1016.96 1016.96
          1016.96 1080.05 1080.05 1080.05 1080.05 1080.06 1080.06 1080.06 1080.06 1080.06 1080.06 1080.06
          1080.06 1080.06 1080.04 1080.04 1080.04 1080.04 1080.04 1080.04 1080.04 1080.04 1080.04 1080.04
          1080.04 1080.04 1080.04 1080.04 1080.04 1080.04 1080.04 1080.04 1080.04 1080.04 1080.04 1080.04
          1080.05 1080.05 1080.05 1080.03 1080.03 1080.03 1080.03 1080.03 1080.03 1080.03 1080.03 1080.03
          1080.03 1080.03 1080.03 1080.03 1080.03 1080.03 1080.03 1080.03 1080.03 1080.03 1080.03 1080.03
          1080.03 1080.03 1080.03 1080.03 1080.02 1080.02 1080.02 1080.02 1080.02 1080.02 1080.02 1080.02
          1080.02 1080.02 1080.02 1080.02 1080.02 1080.02 1080.02 1080.02 1080.02 1080.02 1080.02 1080.02
          1080.02 1080.02 1080.02 1080.02 1080.02
        </DataArray>
        <DataArray type="Float32" Name="density_g" NumberOfComponents="1" format="ascii">
          969.126 969.146 969.024 969.028 969.155 969.036 969.161 969.042 969.167 969.048 969.173 969.054
          969.178 969.059 969.182 969.063 969.185 969.066 969.189 969.07 969.193 969.074 969.199 969.079
          969.205 969.086 969.212 969.093 969.219 969.1 969.226 969.107 969.233 969.114 969.24 969.121
          969.246 969.128 969.253 969.134 969.259 969.141 969.265 969.147 969.271 969.153 969.275 969.158
          969.276 969.16 968.907 968.912 968.918 968.924 968.93 968.935 968.94 968.944 968.948 968.949
          968.952 968.957 968.966 968.974 968.981 968.988 968.995 969.002 969.008 969.015 969.021 969.028
          969.035 969.042 969.049 968.789 968.794 968.8 968.806 968.811 968.817 968.822 968.827 968.83
          527.813 527.82 527.829 968.846 968.855 968.862 968.869 968.876 968.882 968.889 968.895 968.902
          968.909 968.917 968.925 968.939 968.671 968.676 968.682 968.688 968.693 968.699 968.705 968.71
          968.715 527.379 527.386 527.395 968.729 968.736 968.743 968.75 968.757 968.763 968.769 968.776
          968.783 968.79 968.797 968.807 968.821 968.553 968.558 968.564 968.57 968.575 968.581 968.587
          968.593 968.599 526.944 526.951 526.959 968.612 968.619 968.625 968.631 968.638 968.644 968.65
          968.656 968.663 968.67 968.677 968.685 968.699 968.434 968.44 968.445 968.451 968.457 968.464
          968.47 968.477 968.484 526.508 526.516 526.523 968.496 968.501 968.507 968.513 968.519 968.525
          968.531 968.537 968.543 968.549 968.555 968.562 968.569 968.316 968.321 968.327 968.333 968.339
          968.346 968.353 968.36 968.369 526.072 526.081 526.088 968.379 968.384 968.389 968.394 968.4
          968.405 968.411 968.417 968.423 968.428 968.433 968.438 968.44 968.197 968.202 968.208 968.214
          968.22 968.227 968.234 968.243 968.253 525.639 525.649 525.655 968.262 968.266 968.27 968.275
          968.28 968.286 968.292 968.297 968.303 968.308 968.312 968.316 968.317 968.101 968.106 968.112
          968.118 968.125 968.132 968.139 968.148 968.159 525.281 525.291 525.297 968.168 968.17 968.174
          968.179 968.184 968.189 968.194 968.199 968.204 968.208 968.212 968.215 968.216 967.982 967.988
          967.994 968.001 968.008 968.015 968.023 968.032 968.041 524.829 524.838 524.844 968.051 968.053
          968.057 968.06 968.064 968.069 968.073 968.077 968.081 968.085 968.088 968.09 968.09 967.863
          967.87 967.876 967.883 967.89 967.897 967.905 967.914 967.923 524.38 524.389 524.395 967.933
          967.935 967.938 967.941 967.945 967.948 967.952 967.956 967.959 967.962 967.964 967.966 967.966
          967.745 967.751 967.758 967.765 967.772 967.779 967.787 967.796 967.806 523.933 523.943 523.949
          967.815 967.817 967.819 967.822 967.825 967.828 967.831 967.834 967.837 967.839 967.841 967.842
          967.843 967.626 967.633 967.639 967.646 967.653 967.66 967.668 967.677 967.688 523.488 523.501
          523.507 967.697 967.698 967.7 967.703 967.705 967.708 967.711 967.713 967.716 967.718 967.719
          967.72 967.72 967.507 967.514 967.521 967.527 967.534 967.541 967.549 967.557 967.565 967.574
          967.577 967.579 967.578 967.579 967.581 967.583 967.585 967.588 967.59 967.592 967.595 967.596
          967.598 967.599 967.599 967.39 967.397 967.402 967.408 967.414 967.421 967.429 967.436 967.444
          967.45 967.454 967.457 967.458 967.459 967.461 967.463 967.465 967.467 967.47 967.472 967.474
          967.475 967.477 967.477 967.478 967.286 967.279 967.282 967.288 967.294 967.301 967.308 967.316
          967.323 967.329 967.333 967.336 967.338 967.339 967.341 967.343 967.345 967.347 967.349 967.351
          967.353 967.355 967.356 967.357 967.357
        </DataArray>
        <DataArray type="Float32" Name="saturation_l" NumberOfComponents="1" format="ascii">
          1 1 1 1 1 1 1 1 1 1 1 1
          1 1 1 1 1 1 1 1 1 1 1 1
          1 1 1 1 1 1 1 1 1 1 1 1
          1 1 1 1 1 1 1 1 1 1 1 1
          1 1 1 1 1 1 1 1 1 1 1 1
          1 1 1 1 1 1 1 1 1 1 1 1
          1 1 0.986242 1 1 1 1 1 1 1 1 1
          1 1 1 1 1 1 1 1 1 1 1 1
          1 1 0.999996 0.97249 1 1 1 1 1 1 1 1
          1 1 1 1 1 1 1 1 1 1 1 1
          1 1 1 0.999995 0.972486 1 1 1 1 1 1 1
          1 1 1 1 1 1 1 1 1 1 1 1
          1 1 1 1 0.999996 0.972482 1 1 1 1 1 1
          1 1 1 1 1 1 1 1 1 1 1 1
          1 1 1 1 1 1 0.986228 1 1 1 1 1
          1 1 1 1 1 1 1 1 1 1 1 1
          1 1 1 1 1 1 1 0.999999 1 1 1 1
          1 1 1 1 1 1 1 1 1 1 1 1
          1 1 1 1 1 1 1 1 1 1 1 1
          1 1 1 1 1 1 1 1 1 1 1 1
          1 1 1 1 1 1 1 1 1 1 1 1
          1 1 1 1 1 1 1 1 1 1 1 1
          1 1 1 1 1 1 1 1 1 1 1 1
          1 1 1 1 1 1 1 1 1 1 1 1
          1 1 1 1 1 1 1 1 1 1 1 1
          1 1 1 1 1 1 1 1 1 1 1 1
          1 1 1 1 1 1 1 1 1 1 1 1
          1 1 1 1 1 1 1 1 1 1 1 1
          1 1 1 1 1 1 1 1 1 1 1 1
          1 1 1 1 1 1 1 1 1 1 1 1
          1 1 1 1 1 1 1 1 1 1 1 1
          1 1 1 1 1 1 1 1 1 1 1 1
          1 1 1 1 1 1 1 1 1 1 1 1
          1 1 1 1 1 1 1 1 1 1 1 1
          1 1 1 1 1 1 1 1 1 1 1 1
          1 1 1 1 1
        </DataArray>
        <DataArray type="Float32" Name="saturation_g" NumberOfComponents="1" format="ascii">
          0 0 0 0 0 0 0 0 0 0 0 0
          0 0 0 0 0 0 0 0 0 0 0 0
          0 0 0 0 0 0 0 0 0 0 0 0
          0 0 0 0 0 0 0 0 0 0 0 0
          0 0 0 0 0 0 0 0 0 0 0 0
          0 0 0 0 0 0 0 0 0 0 0 0
          0 3.13717e-07 0.0137584 0 0 0 0 0 0 0 0 0
          0 0 0 0 0 0 0 0 0 0 0 0
          0 0 4.2851e-06 0.0275096 0 0 0 0 0 0 0 0
          0 0 0 0 0 0 0 0 0 0 0 0
          0 0 0 4.66887e-06 0.0275142 0 0 0 0 0 0 0
          0 0 0 0 0 0 0 0 0 0 0 0
          0 0 0 0 4.27637e-06 0.0275176 0 0 0 0 0 0
          0 0 0 0 0 0 0 0 0 0 0 0
          0 0 0 0 0 3.10145e-07 0.0137715 0 0 0 0 0
          0 0 0 0 0 0 0 0 0 0 0 0
          0 0 0 0 0 0 0 8.78109e-07 0 0 0 0
          0 0 0 0 0 0 0 0 0 0 0 0
          0 0 0 0 0 0 0 0 0 0 0 0
          0 0 0 0 0 0 0 0 0 0 0 0
          0 0 0 0 0 0 0 0 0 0 0 0
          0 0 0 0 0 0 0 0 0 0 0 0
          0 0 0 0 0 0 0 0 0 0 0 0
          0 0 0 0 0 0 0 0 0 0 0 0
          0 0 0 0 0 0 0 0 0 0 0 0
          0 0 0 0 0 0 0 0 0 0 0 0
          0 0 0 0 0 0 0 0 0 0 0 0
          0 0 0 0 0 0 0 0 0 0 0 0
          0 0 0 0 0 0 0 0 0 0 0 0
          0 0 0 0 0 0 0 0 0 0 0 0
          0 0 0 0 0 0 0 0 0 0 0 0
          0 0 0 0 0 0 0 0 0 0 0 0
          0 0 0 0 0 0 0 0 0 0 0 0
          0 0 0 0 0 0 0 0 0 0 0 0
          0 0 0 0 0 0 0 0 0 0 0 0
          0 0 0 0 0
        </DataArray>
        <DataArray type="Float32" Name="relativePerm_l" NumberOfComponents="1" format="ascii">
          1 1 1 1 1 1 1 1 1 1 1 1
          1 1 1 1 1 1 1 1 1 1 1 1
          1 1 1 1 1 1 1 1 1 1 1 1
          1 1 1 1 1 1 1 1 1 1 1 1
          1 1 1 1 1 1 1 1 1 1 1 1
          1 1 1 1 1 1 1 1 1 1 1 1
          1 0.999998 0.932962 1 1 1 1 1 1 1 1 1
          1 1 1 1 1 1 1 1 1 1 1 1
          1 1 0.999979 0.869386 1 1 1 1 1 1 1 1
          1 1 1 1 1 1 1 1 1 1 1 1
          1 1 1 0.999977 0.869365 1 1 1 1 1 1 1
          1 1 1 1 1 1 1 1 1 1 1 1
          1 1 1 1 0.999979 0.869349 1 1 1 1 1 1
          1 1 1 1 1 1 1 1 1 1 1 1
          1 1 1 1 1 0.999998 0.9329 1 1 1 1 1
          1 1 1 1 1 1 1 1 1 1 1 1
          1 1 1 1 1 1 1 0.999996 1 1 1 1
          1 1 1 1 1 1 1 1 1 1 1 1
          1 1 1 1 1 1 1 1 1 1 1 1
          1 1 1 1 1 1 1 1 1 1 1 1
          1 1 1 1 1 1 1 1 1 1 1 1
          1 1 1 1 1 1 1 1 1 1 1 1
          1 1 1 1 1 1 1 1 1 1 1 1
          1 1 1 1 1 1 1 1 1 1 1 1
          1 1 1 1 1 1 1 1 1 1 1 1
          1 1 1 1 1 1 1 1 1 1 1 1
          1 1 1 1 1 1 1 1 1 1 1 1
          1 1 1 1 1 1 1 1 1 1 1 1
          1 1 1 1 1 1 1 1 1 1 1 1
          1 1 1 1 1 1 1 1 1 1 1 1
          1 1 1 1 1 1 1 1 1 1 1 1
          1 1 1 1 1 1 1 1 1 1 1 1
          1 1 1 1 1 1 1 1 1 1 1 1
          1 1 1 1 1 1 1 1 1 1 1 1
          1 1 1 1 1 1 1 1 1 1 1 1
          1 1 1 1 1
        </DataArray>
        <DataArray type="Float32" Name="relativePerm_g" NumberOfComponents="1" format="ascii">
          0 0 0 0 0 0 0 0 0 0 0 0
          0 0 0 0 0 0 0 0 0 0 0 0
          0 0 0 0 0 0 0 0 0 0 0 0
          0 0 0 0 0 0 0 0 0 0 0 0
          0 0 0 0 0 0 0 0 0 0 0 0
          0 0 0 0 0 0 0 0 0 0 0 0
          0 1.20607e-19 1.00858e-05 0 0 0 0 0 0 0 0 0
          0 0 0 0 0 0 0 0 0 0 0 0
          0 0 3.07357e-16 7.99243e-05 0 0 0 0 0 0 0 0
          0 0 0 0 0 0 0 0 0 0 0 0
          0 0 0 3.97553e-16 7.99646e-05 0 0 0 0 0 0 0
          0 0 0 0 0 0 0 0 0 0 0 0
          0 0 0 0 3.05481e-16 7.99943e-05 0 0 0 0 0 0
          0 0 0 0 0 0 0 0 0 0 0 0
          0 0 0 0 0 1.16535e-19 1.01147e-05 0 0 0 0 0
          0 0 0 0 0 0 0 0 0 0 0 0
          0 0 0 0 0 0 0 2.64488e-18 0 0 0 0
          0 0 0 0 0 0 0 0 0 0 0 0
          0 0 0 0 0 0 0 0 0 0 0 0
          0 0 0 0 0 0 0 0 0 0 0 0
          0 0 0 0 0 0 0 0 0 0 0 0
          0 0 0 0 0 0 0 0 0 0 0 0
          0 0 0 0 0 0 0 0 0 0 0 0
          0 0 0 0 0 0 0 0 0 0 0 0
          0 0 0 0 0 0 0 0 0 0 0 0
          0 0 0 0 0 0 0 0 0 0 0 0
          0 0 0 0 0 0 0 0 0 0 0 0
          0 0 0 0 0 0 0 0 0 0 0 0
          0 0 0 0 0 0 0 0 0 0 0 0
          0 0 0 0 0 0 0 0 0 0 0 0
          0 0 0 0 0 0 0 0 0 0 0 0
          0 0 0 0 0 0 0 0 0 0 0 0
          0 0 0 0 0 0 0 0 0 0 0 0
          0 0 0 0 0 0 0 0 0 0 0 0
          0 0 0 0 0 0 0 0 0 0 0 0
          0 0 0 0 0
        </DataArray>
        <DataArray type="Float32" Name="porosity" NumberOfComponents="1" format="ascii">
          0.3 0.3 0.3 0.3 0.3 0.3 0.3 0.3 0.3 0.3 0.3 0.3
          0.3 0.3 0.3 0.3 0.3 0.3 0.3 0.3 0.3 0.3 0.3 0.3
          0.3 0.3 0.3 0.3 0.3 0.3 0.3 0.3 0.3 0.3 0.3 0.3
          0.3 0.3 0.3 0.3 0.3 0.3 0.3 0.3 0.3 0.3 0.3 0.3
          0.3 0.3 0.3 0.3 0.3 0.3 0.3 0.3 0.3 0.3 0.3 0.3
          0.3 0.3 0.3 0.3 0.3 0.3 0.3 0.3 0.3 0.3 0.3 0.3
          0.3 0.3 0.3 0.3 0.3 0.3 0.3 0.3 0.3 0.3 0.3 0.3
          0.3 0.3 0.3 0.3 0.3 0.3 0.3 0.3 0.3 0.3 0.3 0.3
          0.3 0.3 0.3 0.3 0.3 0.3 0.3 0.3 0.3 0.3 0.3 0.3
          0.3 0.3 0.3 0.3 0.3 0.3 0.3 0.3 0.3 0.3 0.3 0.3
          0.3 0.3 0.3 0.3 0.3 0.3 0.3 0.3 0.3 0.3 0.3 0.3
          0.3 0.3 0.3 0.3 0.3 0.3 0.3 0.3 0.3 0.3 0.3 0.3
          0.3 0.3 0.3 0.3 0.3 0.3 0.3 0.3 0.3 0.3 0.3 0.3
          0.3 0.3 0.3 0.3 0.3 0.3 0.3 0.3 0.3 0.3 0.3 0.3
          0.3 0.3 0.3 0.3 0.3 0.3 0.3 0.3 0.3 0.3 0.3 0.3
          0.3 0.3 0.3 0.3 0.3 0.3 0.3 0.3 0.3 0.3 0.3 0.3
          0.3 0.3 0.3 0.3 0.3 0.3 0.3 0.3 0.3 0.3 0.3 0.3
          0.3 0.3 0.3 0.3 0.3 0.3 0.3 0.3 0.3 0.3 0.3 0.3
          0.3 0.3 0.3 0.3 0.3 0.3 0.3 0.3 0.3 0.3 0.3 0.3
          0.3 0.3 0.3 0.3 0.3 0.3 0.3 0.3 0.3 0.3 0.3 0.3
          0.3 0.3 0.3 0.3 0.3 0.3 0.3 0.3 0.3 0.3 0.3 0.3
          0.3 0.3 0.3 0.3 0.3 0.3 0.3 0.3 0.3 0.3 0.3 0.3
          0.3 0.3 0.3 0.3 0.3 0.3 0.3 0.3 0.3 0.3 0.3 0.3
          0.3 0.3 0.3 0.3 0.3 0.3 0.3 0.3 0.3 0.3 0.3 0.3
          0.3 0.3 0.3 0.3 0.3 0.3 0.3 0.3 0.3 0.3 0.3 0.3
          0.3 0.3 0.3 0.3 0.3 0.3 0.3 0.3 0.3 0.3 0.3 0.3
          0.3 0.3 0.3 0.3 0.3 0.3 0.3 0.3 0.3 0.3 0.3 0.3
          0.3 0.3 0.3 0.3 0.3 0.3 0.3 0.3 0.3 0.3 0.3 0.3
          0.3 0.3 0.3 0.3 0.3 0.3 0.3 0.3 0.3 0.3 0.3 0.3
          0.3 0.3 0.3 0.3 0.3 0.3 0.3 0.3 0.3 0.3 0.3 0.3
          0.3 0.3 0.3 0.3 0.3 0.3 0.3 0.3 0.3 0.3 0.3 0.3
          0.3 0.3 0.3 0.3 0.3 0.3 0.3 0.3 0.3 0.3 0.3 0.3
          0.3 0.3 0.3 0.3 0.3 0.3 0.3 0.3 0.3 0.3 0.3 0.3
          0.3 0.3 0.3 0.3 0.3 0.3 0.3 0.3 0.3 0.3 0.3 0.3
          0.3 0.3 0.3 0.3 0.3 0.3 0.3 0.3 0.3 0.3 0.3 0.3
          0.3 0.3 0.3 0.3 0.3
        </DataArray>
        <DataArray type="Float32" Name="temperature" NumberOfComponents="1" format="ascii">
          293.15 293.15 293.15 293.15 293.15 293.15 293.15 293.15 293.15 293.15 293.15 293.15
          293.15 293.15 293.15 293.15 293.15 293.15 293.15 293.15 293.15 293.15 293.15 293.15
          293.15 293.15 293.15 293.15 293.15 293.15 293.15 293.15 293.15 293.15 293.15 293.15
          293.15 293.15 293.15 293.15 293.15 293.15 293.15 293.15 293.15 293.15 293.15 293.15
          293.15 293.15 293.15 293.15 293.15 293.15 293.15 293.15 293.15 293.15 293.15 293.15
          293.15 293.15 293.15 293.15 293.15 293.15 293.15 293.15 293.15 293.15 293.15 293.15
          293.15 293.15 293.15 293.15 293.15 293.15 293.15 293.15 293.15 293.15 293.15 293.15
          393.15 393.15 393.15 293.15 293.15 293.15 293.15 293.15 293.15 293.15 293.15 293.15
          293.15 293.15 293.15 293.15 293.15 293.15 293.15 293.15 293.15 293.15 293.15 293.15
          293.15 393.15 393.15 393.15 293.15 293.15 293.15 293.15 293.15 293.15 293.15 293.15
          293.15 293.15 293.15 293.15 293.15 293.15 293.15 293.15 293.15 293.15 293.15 293.15
          293.15 293.15 393.15 393.15 393.15 293.15 293.15 293.15 293.15 293.15 293.15 293.15
          293.15 293.15 293.15 293.15 293.15 293.15 293.15 293.15 293.15 293.15 293.15 293.15
          293.15 293.15 293.15 393.15 393.15 393.15 293.15 293.15 293.15 293.15 293.15 293.15
          293.15 293.15 293.15 293.15 293.15 293.15 293.15 293.15 293.15 293.15 293.15 293.15
          293.15 293.15 293.15 293.15 393.15 393.15 393.15 293.15 293.15 293.15 293.15 293.15
          293.15 293.15 293.15 293.15 293.15 293.15 293.15 293.15 293.15 293.15 293.15 293.15
          293.15 293.15 293.15 293.15 293.15 393.15 393.15 393.15 293.15 293.15 293.15 293.15
          293.15 293.15 293.15 293.15 293.15 293.15 293.15 293.15 293.15 293.15 293.15 293.15
          293.15 293.15 293.15 293.15 293.15 293.15 393.15 393.15 393.15 293.15 293.15 293.15
          293.15 293.15 293.15 293.15 293.15 293.15 293.15 293.15 293.15 293.15 293.15 293.15
          293.15 293.15 293.15 293.15 293.15 293.15 293.15 393.15 393.15 393.15 293.15 293.15
          293.15 293.15 293.15 293.15 293.15 293.15 293.15 293.15 293.15 293.15 293.15 293.15
          293.15 293.15 293.15 293.15 293.15 293.15 293.15 293.15 393.15 393.15 393.15 293.15
          293.15 293.15 293.15 293.15 293.15 293.15 293.15 293.15 293.15 293.15 293.15 293.15
          293.15 293.15 293.15 293.15 293.15 293.15 293.15 293.15 293.15 393.15 393.15 393.15
          293.15 293.15 293.15 293.15 293.15 293.15 293.15 293.15 293.15 293.15 293.15 293.15
          293.15 293.15 293.15 293.15 293.15 293.15 293.15 293.15 293.15 293.15 393.15 393.15
          393.15 293.15 293.15 293.15 293.15 293.15 293.15 293.15 293.15 293.15 293.15 293.15
          293.15 293.15 293.15 293.15 293.15 293.15 293.15 293.15 293.15 293.15 293.15 293.15
          293.15 293.15 293.15 293.15 293.15 293.15 293.15 293.15 293.15 293.15 293.15 293.15
          293.15 293.15 293.15 293.15 293.15 293.15 293.15 293.15 293.15 293.15 293.15 293.15
          293.15 293.15 293.15 293.15 293.15 293.15 293.15 293.15 293.15 293.15 293.15 293.15