<?xml version="1.0"?>
<VTKFile type="UnstructuredGrid" version="0.1" byte_order="LittleEndian">
  <UnstructuredGrid>
    <Piece NumberOfCells="44" NumberOfPoints="60">
      <PointData Scalars="moleFrac_w^H2O">
        <DataArray type="Float32" Name="moleFrac_w^H2O" NumberOfComponents="1" format="ascii">
          0.999967 0.999967 0.999967 0.999967 0.999967 0.999967 0.999967 0.999967 0.999967 0.999967 0.999967 0.999967
          0.999967 0.999967 0.999967 0.999967 0.999967 0.999967 0.999967 0.999967 0.999967 0.999967 0.999967 0.999967
          0.999967 0.999967 0.999967 0.999967 0.999967 0.999967 0.999967 0.999967 0.999967 0.999967 0.999967 0.999967
          0.999967 0.999967 0.99996 0.99996 0.99996 0.99996 0.999967 0.999967 0.999967 0.999967 0.999967 0.999967
          0.999967 0.999967 0.999967 0.999967 0.999967 0.999967 0.999967 0.999967 0.999967 0.999967 0.999967 0.999967
        </DataArray>
        <DataArray type="Float32" Name="moleFrac_w^mesitylene" NumberOfComponents="1" format="ascii">
          1.41914e-13 4.09462e-12 2.14516e-12 6.81488e-12 1.54483e-11 1.81419e-11 3.33812e-11 4.92754e-11 5.32135e-11 1.2939e-10 7.11513e-11 2.95004e-10
          8.26129e-11 5.48832e-10 8.4011e-11 7.20269e-10 8.32444e-11 6.48502e-10 1.17692e-10 6.59775e-10 9.99059e-11 4.38653e-10 3.84449e-11 1.89262e-10
          2.45653e-12 2.1228e-09 2.48198e-07 2.74329e-07 2.486e-07 2.05781e-07 1.10549e-08 1.18437e-09 3.29117e-10 5.0779e-10 2.31879e-10 7.07836e-11
          4.13501e-12 7.4656e-08 6.96593e-06 6.96593e-06 6.96593e-06 6.96593e-06 5.26795e-07 1.36847e-07 8.98286e-08 1.45485e-07 4.71543e-08 6.98091e-09
          4.1103e-12 1.52421e-11 3.34695e-10 2.58861e-09 1.19105e-08 3.97065e-08 1.00666e-07 1.95729e-07 2.83315e-07 2.14502e-07 1.77797e-08 1.41394e-09
        </DataArray>
        <DataArray type="Float32" Name="moleFrac_w^Air" NumberOfComponents="1" format="ascii">
          3.29402e-05 3.294e-05 3.29395e-05 3.29393e-05 3.29397e-05 3.29391e-05 3.29395e-05 3.29388e-05 3.29392e-05 3.29385e-05 3.2939e-05 3.29382e-05
          3.29387e-05 3.2938e-05 3.29385e-05 3.29378e-05 3.29385e-05 3.29375e-05 3.29372e-05 3.29373e-05 3.29367e-05 3.29373e-05 3.29366e-05 3.29373e-05
          3.29402e-05 3.29379e-05 3.29353e-05 3.29344e-05 3.29341e-05 3.2934e-05 3.29346e-05 3.29347e-05 3.29353e-05 3.29366e-05 3.29365e-05 3.29365e-05
          3.29396e-05 3.29371e-05 3.29071e-05 3.29064e-05 3.29059e-05 3.29056e-05 3.29319e-05 3.29335e-05 3.29343e-05 3.29352e-05 3.29356e-05 3.29357e-05
          3.29377e-05 3.29377e-05 3.29375e-05 3.29371e-05 3.29367e-05 3.29363e-05 3.29358e-05 3.29351e-05 3.29344e-05 3.29341e-05 3.2935e-05 3.2935e-05
        </DataArray>
        <DataArray type="Float32" Name="moleFrac_n^H2O" NumberOfComponents="1" format="ascii">
          1.01436e-05 1.01436e-05 1.01436e-05 1.01436e-05 1.01436e-05 1.01436e-05 1.01436e-05 1.01436e-05 1.01436e-05 1.01436e-05 1.01436e-05 1.01436e-05
          1.01436e-05 1.01436e-05 1.01436e-05 1.01436e-05 1.01436e-05 1.01436e-05 1.01436e-05 1.01436e-05 1.01436e-05 1.01436e-05 1.01436e-05 1.01436e-05
          1.01436e-05 1.01436e-05 1.01436e-05 1.01436e-05 1.01436e-05 1.01436e-05 1.01436e-05 1.01436e-05 1.01436e-05 1.01436e-05 1.01436e-05 1.01436e-05
          1.01436e-05 1.01436e-05 1.01435e-05 1.01435e-05 1.01435e-05 1.01435e-05 1.01436e-05 1.01436e-05 1.01436e-05 1.01436e-05 1.01436e-05 1.01436e-05
          1.01436e-05 1.01436e-05 1.01436e-05 1.01436e-05 1.01436e-05 1.01436e-05 1.01436e-05 1.01436e-05 1.01436e-05 1.01436e-05 1.01436e-05 1.01436e-05
        </DataArray>
        <DataArray type="Float32" Name="moleFrac_n^mesitylene" NumberOfComponents="1" format="ascii">
          2.03492e-08 5.8713e-07 3.07596e-07 9.7719e-07 2.21514e-06 2.60138e-06 4.78655e-06 7.06563e-06 7.63033e-06 1.85534e-05 1.02024e-05 4.23008e-05
          1.18459e-05 7.86974e-05 1.20464e-05 0.00010328 1.19365e-05 9.29891e-05 1.6876e-05 9.46056e-05 1.43256e-05 6.28988e-05 5.51264e-06 2.71384e-05
          3.52243e-07 0.00030439 0.0355893 0.0393362 0.0356469 0.0295071 0.00158517 0.000169828 4.71923e-05 7.28124e-05 3.32493e-05 1.01497e-05
          5.92922e-07 0.010705 0.99885 0.99885 0.99885 0.99885 0.0755375 0.0196226 0.0128806 0.0208611 0.00676148 0.001001
          5.89378e-07 2.18557e-06 4.79921e-05 0.000371182 0.00170785 0.00569354 0.0144345 0.0280658 0.0406247 0.0307576 0.00254944 0.000202746
        </DataArray>
        <DataArray type="Float32" Name="moleFrac_n^Air" NumberOfComponents="1" format="ascii">
          0.00114126 0.00114126 0.00114124 0.00114123 0.00114125 0.00114122 0.00114124 0.00114121 0.00114123 0.0011412 0.00114122 0.00114119
          0.00114121 0.00114119 0.00114121 0.00114118 0.0011412 0.00114117 0.00114116 0.00114116 0.00114114 0.00114116 0.00114114 0.00114116
          0.00114126 0.00114118 0.00114109 0.00114106 0.00114105 0.00114105 0.00114107 0.00114107 0.00114109 0.00114114 0.00114114 0.00114114
          0.00114124 0.00114116 0.00114012 0.00114009 0.00114008 0.00114006 0.00114098 0.00114103 0.00114106 0.00114109 0.0011411 0.00114111
          0.00114118 0.00114118 0.00114117 0.00114116 0.00114114 0.00114113 0.00114111 0.00114109 0.00114106 0.00114105 0.00114108 0.00114108
        </DataArray>
        <DataArray type="Float32" Name="moleFrac_g^H2O" NumberOfComponents="1" format="ascii">
          0.00880973 0.00880979 0.00880991 0.00880997 0.00880985 0.00881003 0.00880992 0.00881011 0.00880999 0.00881018 0.00881006 0.00881025
          0.00881012 0.00881031 0.00881017 0.00881036 0.00881019 0.00881045 0.00881052 0.00881051 0.00881067 0.00881051 0.00881069 0.00881051
          0.00880974 0.00881033 0.00881077 0.00881096 0.00881107 0.00881115 0.0088112 0.00881119 0.00881102 0.00881069 0.0088107 0.00881071
          0.0088099 0.00881046 0.00881079 0.00881099 0.00881111 0.0088112 0.00881134 0.00881135 0.0088112 0.00881089 0.0088109 0.0088109
          0.00881039 0.0088104 0.00881044 0.00881054 0.00881064 0.00881073 0.00881079 0.00881086 0.00881097 0.00881111 0.0088111 0.0088111
        </DataArray>
        <DataArray type="Float32" Name="moleFrac_g^mesitylene" NumberOfComponents="1" format="ascii">
          1.76733e-11 5.09928e-10 2.67154e-10 8.48716e-10 1.92388e-09 2.25938e-09 4.15723e-09 6.13679e-09 6.62716e-09 1.61145e-08 8.86118e-09 3.67405e-08
          1.02887e-08 6.83534e-08 1.04629e-08 8.97054e-08 1.03674e-08 8.07679e-08 1.46582e-08 8.21725e-08 1.24431e-08 5.46326e-08 4.78826e-09 2.35719e-08
          3.05925e-10 2.64382e-07 3.09131e-05 3.41684e-05 3.09642e-05 2.56312e-05 1.37695e-06 1.4752e-07 4.09927e-08 6.32447e-08 2.88803e-08 8.81603e-09
          5.14965e-10 9.29808e-06 0.000867615 0.000867634 0.000867646 0.000867655 6.56166e-05 1.70454e-05 1.11887e-05 1.81203e-05 5.87315e-06 8.69485e-07
          5.11915e-10 1.89832e-09 4.16847e-08 3.22402e-07 1.48343e-06 4.94542e-06 1.2538e-05 2.43783e-05 3.52877e-05 2.67173e-05 2.21454e-06 1.76113e-07
        </DataArray>
        <DataArray type="Float32" Name="moleFrac_g^Air" NumberOfComponents="1" format="ascii">
          0.99119 0.99119 0.99119 0.99119 0.99119 0.99119 0.99119 0.99119 0.99119 0.99119 0.99119 0.99119
          0.99119 0.99119 0.99119 0.99119 0.99119 0.991189 0.991189 0.991189 0.991189 0.991189 0.991189 0.991189
          0.99119 0.991189 0.991158 0.991155 0.991158 0.991163 0.991187 0.991189 0.991189 0.991189 0.991189 0.991189
          0.99119 0.99118 0.990322 0.990321 0.990321 0.990321 0.991123 0.991172 0.991178 0.991171 0.991183 0.991188
          0.99119 0.99119 0.99119 0.991189 0.991188 0.991184 0.991177 0.991165 0.991154 0.991162 0.991187 0.991189
        </DataArray>
      </PointData>
      <Points>
        <DataArray type="Float32" Name="Coordinates" NumberOfComponents="3" format="ascii">
          0 0 0 0.136364 0 0 0 0.185 0 0.136364 0.185 0
          0.272727 0 0 0.272727 0.185 0 0.409091 0 0 0.409091 0.185 0
          0.545455 0 0 0.545455 0.185 0 0.681818 0 0 0.681818 0.185 0
          0.818182 0 0 0.818182 0.185 0 0.954545 0 0 0.954545 0.185 0
          1.09091 0 0 1.09091 0.185 0 1.22727 0 0 1.22727 0.185 0
          1.36364 0 0 1.36364 0.185 0 1.5 0 0 1.5 0.185 0
          0 0.37 0 0.136364 0.37 0 0.272727 0.37 0 0.409091 0.37 0
          0.545455 0.37 0 0.681818 0.37 0 0.818182 0.37 0 0.954545 0.37 0
          1.09091 0.37 0 1.22727 0.37 0 1.36364 0.37 0 1.5 0.37 0
          0 0.555 0 0.136364 0.555 0 0.272727 0.555 0 0.409091 0.555 0
          0.545455 0.555 0 0.681818 0.555 0 0.818182 0.555 0 0.954545 0.555 0
          1.09091 0.555 0 1.22727 0.555 0 1.36364 0.555 0 1.5 0.555 0
          0 0.74 0 0.136364 0.74 0 0.272727 0.74 0 0.409091 0.74 0
          0.545455 0.74 0 0.681818 0.74 0 0.818182 0.74 0 0.954545 0.74 0
          1.09091 0.74 0 1.22727 0.74 0 1.36364 0.74 0 1.5 0.74 0
        </DataArray>
      </Points>
      <Cells>
        <DataArray type="Int32" Name="connectivity" NumberOfComponents="1" format="ascii">
          0 1 3 2 1 4 5 3 4 6 7 5
          6 8 9 7 8 10 11 9 10 12 13 11
          12 14 15 13 14 16 17 15 16 18 19 17
          18 20 21 19 20 22 23 21 2 3 25 24
          3 5 26 25 5 7 27 26 7 9 28 27
          9 11 29 28 11 13 30 29 13 15 31 30
          15 17 32 31 17 19 33 32 19 21 34 33
          21 23 35 34 24 25 37 36 25 26 38 37
          26 27 39 38 27 28 40 39 28 29 41 40
          29 30 42 41 30 31 43 42 31 32 44 43
          32 33 45 44 33 34 46 45 34 35 47 46
          36 37 49 48 37 38 50 49 38 39 51 50
          39 40 52 51 40 41 53 52 41 42 54 53
          42 43 55 54 43 44 56 55 44 45 57 56
          45 46 58 57 46 47 59 58
        </DataArray>
        <DataArray type="Int32" Name="offsets" NumberOfComponents="1" format="ascii">
          4 8 12 16 20 24 28 32 36 40 44 48
          52 56 60 64 68 72 76 80 84 88 92 96
          100 104 108 112 116 120 124 128 132 136 140 144
          148 152 156 160 164 168 172 176
        </DataArray>
        <DataArray type="UInt8" Name="types" NumberOfComponents="1" format="ascii">
          9 9 9 9 9 9 9 9 9 9 9 9
          9 9 9 9 9 9 9 9 9 9 9 9
          9 9 9 9 9 9 9 9 9 9 9 9
          9 9 9 9 9 9 9 9
        </DataArray>
      </Cells>
    </Piece>
  </UnstructuredGrid>
</VTKFile>
