<?xml version="1.0"?>
<VTKFile type="PolyData" version="0.1" byte_order="LittleEndian">
  <PolyData>
    <Piece NumberOfLines="250" NumberOfPoints="251">
      <PointData Scalars="pressure_l">
        <DataArray type="Float32" Name="pressure_l" NumberOfComponents="1" format="ascii">
          100000 100000 100000 100000 100000 100000 100000 100000 100000 100000 100000 100000
          100000 100000 100000 100000 100000 100000 100000 100000 100000 100000 100000 100000
          100000 100000 100000 100000 100000 100000 100000 100000 100000 100000 100000 100000
          100000 100000 100000 100000 100000 100000 100000 100000 100000 100000 100000 100000
          100000 100000 100000 100000 100000 100000 100000 100000 100000 100000 100000 100000
          100000 100000 100000 100000 100000 100000 100000 100000 100000 100000 100000 100000
          100000 100000 100000 100000 100000 100000 100000 100000 100000 100000 100000 100000
          100000 100000 100000 100000 100000 100000 100000 100000 100000 100000 100000 100000
          100000 100000 100000 100000 100000 100000 100000 100000 100000 100000 100000 100000
          100000 100000 100000 100000 100000 100000 100000 100000 100000 100000 100000 100000
          100000 100000 100000 100000 100000 100000 100000 100000 100000 100000 100000 100000
          100000 100000 100000 100000 100000 100000 100000 100000 100000 100000 100000 100000
          100000 100000 100000 100000 100000 100000 100000 100000 100000 100000 100000 100000
          100000 100000 100000 100000 100000 100000 100000 100000 100000 100000 100000 100000
          100000 100000 100000 100000 100000 100000 100000 100000 100000 100000 100000 100000
          100000 100000 100000 100000 100000 100000 100000 100000 100000 100000 100000 100000
          100000 100000 100000 100000 100000 100000 100000 100000 100000 100000 100000 100000
          100000 100000 100000 100000 100000 100000 100000 100000 100000 100000 100000 100000
          100000 100000 100000 100000 100000 100000 100000 100000 100000 100000 100000 100000
          100000 100000 100000 100000 100000 100000 100000 100000 100000 100000 100000 100000
          100000 100000 100000 100000 100000 100000 100000 100000 100000 100000 100000
        </DataArray>
        <DataArray type="Float32" Name="pressure_g" NumberOfComponents="1" format="ascii">
          100000 100000 100000 100000 100000 100000 100000 100000 100000 100000 100000 100000
          100000 100000 100000 100000 100000 100000 100000 100000 100000 100000 100000 100000
          100000 100000 100000 100000 100000 100000 100000 100000 100000 100000 100000 100000
          100000 100000 100000 100000 100000 100000 100000 100000 100000 100000 100000 100000
          100000 100000 100000 100000 100000 100000 100000 100000 100000 100000 100000 100000
          100000 100000 100000 100000 100000 100000 100000 100000 100000 100000 100000 100000
          100000 100000 100000 100000 100000 100000 100000 100000 100000 100000 100000 100000
          100000 100000 100000 100000 100000 100000 100000 100000 100000 100000 100000 100000
          100000 100000 100000 100000 100000 100000 100000 100000 100000 100000 100000 100000
          100000 100000 100000 100000 100000 100000 100000 100000 100000 100000 100000 100000
          100000 100000 100000 100000 100000 100000 100000 100000 100000 100000 100000 100000
          100000 100000 100000 100000 100000 100000 100000 100000 100000 100000 100000 100000
          100000 100000 100000 100000 100000 100000 100000 100000 100000 100000 100000 100000
          100000 100000 100000 100000 100000 100000 100000 100000 100000 100000 100000 100000
          100000 100000 100000 100000 100000 100000 100000 100000 100000 100000 100000 100000
          100000 100000 100000 100000 100000 100000 100000 100000 100000 100000 100000 100000
          100000 100000 100000 100000 100000 100000 100000 100000 100000 100000 100000 100000
          100000 100000 100000 100000 100000 100000 100000 100000 100000 100000 100000 100000
          100000 100000 100000 100000 100000 100000 100000 100000 100000 100000 100000 100000
          100000 100000 100000 100000 100000 100000 100000 100000 100000 100000 100000 100000
          100000 100000 100000 100000 100000 100000 100000 100000 100000 100000 100000
        </DataArray>
        <DataArray type="Float32" Name="density_l" NumberOfComponents="1" format="ascii">
          998.223 998.223 998.223 998.223 998.223 998.223 998.223 998.223 998.223 998.223 998.223 998.223
          998.223 998.223 998.223 998.223 998.223 998.223 998.223 998.223 998.223 998.223 998.223 998.223
          998.223 998.223 998.223 998.223 998.223 998.223 998.223 998.223 998.223 998.223 998.223 998.223
          998.223 998.223 998.223 998.223 998.223 998.223 998.223 998.223 998.223 998.223 998.223 998.223
          998.223 998.223 998.223 998.223 998.223 998.223 998.223 998.223 998.223 998.223 998.223 998.223
          998.223 998.223 998.223 998.223 998.223 998.223 998.223 998.223 998.223 998.223 998.223 998.223
          998.223 998.223 998.223 998.223 998.223 998.223 998.223 998.223 998.223 998.223 998.223 998.223
          998.223 998.223 998.223 998.223 998.223 998.223 998.223 998.223 998.223 998.223 998.223 998.223
          998.223 998.223 998.223 998.223 998.223 998.223 998.223 998.223 998.223 998.223 998.223 998.223
          998.223 998.223 998.223 998.223 998.223 998.223 998.223 998.223 998.223 998.223 998.223 998.223
          998.223 998.223 998.223 998.223 998.223 998.223 998.223 998.223 998.223 998.223 998.223 998.223
          998.223 998.223 998.223 998.223 998.223 998.223 998.223 998.223 998.223 998.223 998.223 998.223
          998.223 998.223 998.223 998.223 998.223 998.223 998.223 998.223 998.223 998.223 998.223 998.223
          998.223 998.223 998.223 998.223 998.223 998.223 998.223 998.223 998.223 998.223 998.223 998.223
          998.223 998.223 998.223 998.223 998.223 998.223 998.223 998.223 998.223 998.223 998.223 998.223
          998.223 998.223 998.223 998.223 998.223 998.223 998.223 998.223 998.223 998.223 998.223 998.223
          998.223 998.223 998.223 998.223 998.223 998.223 998.223 998.223 998.223 998.223 998.223 998.223
          998.223 998.223 998.223 998.223 998.223 998.223 998.223 998.223 998.223 998.223 998.223 998.223
          998.223 998.223 998.223 998.223 998.223 998.223 998.223 998.223 998.223 998.223 998.223 998.223
          998.223 998.223 998.223 998.223 998.223 998.223 998.223 998.223 998.223 998.223 998.223 998.223
          998.223 998.223 998.223 998.223 998.223 998.223 998.223 998.223 998.223 998.223 998.223
        </DataArray>
        <DataArray type="Float32" Name="density_g" NumberOfComponents="1" format="ascii">
          1.14728 1.14728 1.14728 1.14728 1.14728 1.14728 1.14728 1.14728 1.14728 1.14728 1.14728 1.14728
          1.14728 1.14728 1.14728 1.14728 1.14728 1.14728 1.14728 1.14728 1.14728 1.14728 1.14728 1.14728
          1.14728 1.14728 1.14728 1.14728 1.14728 1.14728 1.14728 1.14728 1.14728 1.14728 1.14728 1.14728
          1.14728 1.14728 1.14728 1.14728 1.14728 1.14728 1.14728 1.14728 1.14728 1.14728 1.14728 1.14728
          1.14728 1.14728 1.14728 1.14728 1.14728 1.14728 1.14728 1.14728 1.14728 1.14728 1.14728 1.14728
          1.14728 1.14728 1.14728 1.14728 1.14728 1.14728 1.14728 1.14728 1.14728 1.14728 1.14728 1.14728
          1.14728 1.14728 1.14728 1.14728 1.14728 1.14728 1.14728 1.14728 1.14728 1.14728 1.14728 1.14728
          1.14728 1.14728 1.14728 1.14728 1.14728 1.14728 1.14728 1.14728 1.14728 1.14728 1.14728 1.14728
          1.14728 1.14728 1.14728 1.14728 1.14728 1.14728 1.14728 1.14728 1.14728 1.14728 1.14728 1.14728
          1.14728 1.14728 1.14728 1.14728 1.14728 1.14728 1.14728 1.14728 1.14728 1.14728 1.14728 1.14728
          1.14728 1.14728 1.14728 1.14728 1.14728 1.14728 1.14728 1.14728 1.14728 1.14728 1.14728 1.14728
          1.14728 1.14728 1.14728 1.14728 1.14728 1.14728 1.14728 1.14728 1.14728 1.14728 1.14728 1.14728
          1.14728 1.14728 1.14728 1.14728 1.14728 1.14728 1.14728 1.14728 1.14728 1.14728 1.14728 1.14728
          1.14728 1.14728 1.14728 1.14728 1.14728 1.14728 1.14728 1.14728 1.14728 1.14728 1.14728 1.14728
          1.14728 1.14728 1.14728 1.14728 1.14728 1.14728 1.14728 1.14728 1.14728 1.14728 1.14728 1.14728
          1.14728 1.14728 1.14728 1.14728 1.14728 1.14728 1.14728 1.14728 1.14728 1.14728 1.14728 1.14728
          1.14728 1.14728 1.14728 1.14728 1.14728 1.14728 1.14728 1.14728 1.14728 1.14728 1.14728 1.14728
          1.14728 1.14728 1.14728 1.14728 1.14728 1.14728 1.14728 1.14728 1.14728 1.14728 1.14728 1.14728
          1.14728 1.14728 1.14728 1.14728 1.14728 1.14728 1.14728 1.14728 1.14728 1.14728 1.14728 1.14728
          1.14728 1.14728 1.14728 1.14728 1.14728 1.14728 1.14728 1.14728 1.14728 1.14728 1.14728 1.14728
          1.14728 1.14728 1.14728 1.14728 1.14728 1.14728 1.14728 1.14728 1.14728 1.14728 1.14728
        </DataArray>
        <DataArray type="Float32" Name="saturation_l" NumberOfComponents="1" format="ascii">
          -2.16358e-37 -2.16358e-37 -2.16358e-37 -2.16358e-37 0 -2.16358e-37 2.71548e-38 -2.16358e-37 6.93651e-38 6.93651e-38 2.71548e-38 0
          0 -2.16358e-37 -2.251e-37 2.71548e-38 6.7099e-38 2.71548e-38 6.7099e-38 0 6.7099e-38 2.71548e-38 6.7099e-38 -2.18085e-37
          6.7099e-38 -2.18085e-37 -2.06352e-37 1.34715e-38 1.34715e-38 0 1.34715e-38 0 -2.58559e-37 0 -1.76756e-37 0
          1.94237e-37 0 0 1.94237e-37 6.10087e-38 -4.29888e-38 -4.29888e-38 -1.84194e-37 -1.84194e-37 0 0 -2.40053e-37
          0 0 1.09829e-37 -1.667e-37 1.09829e-37 0 -6.68005e-38 0 0 0 0 2.02333e-37
          2.60717e-38 0 2.02333e-37 2.02333e-37 0 -2.41112e-37 0 2.97341e-37 0 -2.91272e-37 -1.81715e-37 1.29305e-38
          1.20867e-37 -1.41298e-37 0 1.21178e-37 -1.80893e-37 0 2.72253e-37 -5.86812e-38 0 -5.10045e-38 2.72253e-37 0
          0 -3.11107e-38 0 0 8.1199e-38 -4.26738e-38 0 -4.43253e-38 0 3.26419e-38 0 0
          -6.99906e-38 0 -2.00357e-37 -4.08952e-38 6.44278e-38 5.09083e-38 5.09083e-38 0 5.09083e-38 9.96146e-38 0 0
          3.99713e-38 0 0 -2.73258e-37 3.99713e-38 8.62082e-38 1.55039e-37 -6.30863e-38 -8.44907e-38 -3.13932e-37 3.28751e-38 0
          0 4.01338e-38 0 1.16242e-37 1.16242e-37 -7.73962e-38 1.45412e-37 -2.43482e-37 1.16242e-37 -1.17983e-37 1.45412e-37 1.45412e-37
          4.43233e-38 -1.10564e-37 4.43233e-38 4.71024e-38 0 0 -3.55944e-37 -4.50224e-38 8.8994e-38 0 -4.50224e-38 5.6777e-38
          -7.04626e-38 1.02297e-37 4.17684e-38 4.43615e-38 1.02297e-37 -1.15211e-37 1.39349e-38 2.27759e-38 2.27759e-38 2.91529e-37 9.14678e-38 6.71772e-38
          9.14678e-38 0 0 0 0 0 0 1.80208e-37 0 -2.2077e-37 4.15024e-38 4.15024e-38
          0 0 -2.2077e-37 -1.56449e-38 0 0 -1.63955e-38 0 -2.27176e-37 0 0 0
          0 0 -3.05137e-38 -3.08505e-37 -1.14327e-37 1.41903e-38 0 0 -1.14327e-37 0 0 -9.24377e-38
          0 0 0 0 0 7.53131e-38 0 0 0 9.85493e-36 6.98488e-38 -6.86618e-36
          -6.86618e-36 -6.86618e-36 2.21706e-37 7.96251e-38 0 0 0 2.27727e-38 0 2.27727e-38 2.96016e-38 0
          2.27727e-38 -3.01467e-36 2.96016e-38 0 0 -3.01467e-36 -9.53056e-36 -9.53056e-36 0 0 0 0
          -9.35435e-36 0 0 -2.88178e-36 0 -9.35435e-36 -9.35435e-36 0 -2.88178e-36 0 -2.88178e-36 -2.88178e-36
          4.77877e-36 -2.88178e-36 -2.88178e-36 3.42279e-38 3.42279e-38 4.47174e-38 3.42279e-38 3.42279e-38 3.42279e-38 4.77877e-36 3.42279e-38
        </DataArray>
        <DataArray type="Float32" Name="saturation_g" NumberOfComponents="1" format="ascii">
          1 1 1 1 1 1 1 1 1 1 1 1
          1 1 1 1 1 1 1 1 1 1 1 1
          1 1 1 1 1 1 1 1 1 1 1 1
          1 1 1 1 1 1 1 1 1 1 1 1
          1 1 1 1 1 1 1 1 1 1 1 1
          1 1 1 1 1 1 1 1 1 1 1 1
          1 1 1 1 1 1 1 1 1 1 1 1
          1 1 1 1 1 1 1 1 1 1 1 1
          1 1 1 1 1 1 1 1 1 1 1 1
          1 1 1 1 1 1 1 1 1 1 1 1
          1 1 1 1 1 1 1 1 1 1 1 1
          1 1 1 1 1 1 1 1 1 1 1 1
          1 1 1 1 1 1 1 1 1 1 1 1
          1 1 1 1 1 1 1 1 1 1 1 1
          1 1 1 1 1 1 1 1 1 1 1 1
          1 1 1 1 1 1 1 1 1 1 1 1
          1 1 1 1 1 1 1 1 1 1 1 1
          1 1 1 1 1 1 1 1 1 1 1 1
          1 1 1 1 1 1 1 1 1 1 1 1
          1 1 1 1 1 1 1 1 1 1 1 1
          1 1 1 1 1 1 1 1 1 1 1
        </DataArray>
        <DataArray type="Float32" Name="relativePerm_l" NumberOfComponents="1" format="ascii">
          0 0 0 0 0 0 2.71548e-38 0 6.93651e-38 6.93651e-38 2.71548e-38 0
          0 0 0 2.71548e-38 6.7099e-38 2.71548e-38 6.7099e-38 0 6.7099e-38 2.71548e-38 6.7099e-38 0
          6.7099e-38 0 0 1.34715e-38 1.34715e-38 0 1.34715e-38 0 0 0 0 0
          1.94237e-37 0 0 1.94237e-37 6.10087e-38 0 0 0 0 0 0 0
          0 0 1.09829e-37 0 1.09829e-37 0 0 0 0 0 0 2.02333e-37
          2.60717e-38 0 2.02333e-37 2.02333e-37 0 0 0 2.97341e-37 0 0 0 1.29305e-38
          1.20867e-37 0 0 1.21178e-37 0 0 2.72253e-37 0 0 0 2.72253e-37 0
          0 0 0 0 8.1199e-38 0 0 0 0 3.26419e-38 0 0
          0 0 0 0 6.44278e-38 5.09083e-38 5.09083e-38 0 5.09083e-38 9.96146e-38 0 0
          3.99713e-38 0 0 0 3.99713e-38 8.62082e-38 1.55039e-37 0 0 0 3.28751e-38 0
          0 4.01338e-38 0 1.16242e-37 1.16242e-37 0 1.45412e-37 0 1.16242e-37 0 1.45412e-37 1.45412e-37
          4.43233e-38 0 4.43233e-38 4.71024e-38 0 0 0 0 8.8994e-38 0 0 5.6777e-38
          0 1.02297e-37 4.17684e-38 4.43615e-38 1.02297e-37 0 1.39349e-38 2.27759e-38 2.27759e-38 2.91529e-37 9.14678e-38 6.71772e-38
          9.14678e-38 0 0 0 0 0 0 1.80208e-37 0 0 4.15024e-38 4.15024e-38
          0 0 0 0 0 0 0 0 0 0 0 0
          0 0 0 0 0 1.41903e-38 0 0 0 0 0 0
          0 0 0 0 0 7.53131e-38 0 0 0 9.85493e-36 6.98488e-38 0
          0 0 2.21706e-37 7.96251e-38 0 0 0 2.27727e-38 0 2.27727e-38 2.96016e-38 0
          2.27727e-38 0 2.96016e-38 0 0 0 0 0 0 0 0 0
          0 0 0 0 0 0 0 0 0 0 0 0
          4.77877e-36 0 0 3.42279e-38 3.42279e-38 4.47174e-38 3.42279e-38 3.42279e-38 3.42279e-38 4.77877e-36 3.42279e-38
        </DataArray>
        <DataArray type="Float32" Name="relativePerm_g" NumberOfComponents="1" format="ascii">
          1 1 1 1 1 1 1 1 1 1 1 1
          1 1 1 1 1 1 1 1 1 1 1 1
          1 1 1 1 1 1 1 1 1 1 1 1
          1 1 1 1 1 1 1 1 1 1 1 1
          1 1 1 1 1 1 1 1 1 1 1 1
          1 1 1 1 1 1 1 1 1 1 1 1
          1 1 1 1 1 1 1 1 1 1 1 1
          1 1 1 1 1 1 1 1 1 1 1 1
          1 1 1 1 1 1 1 1 1 1 1 1
          1 1 1 1 1 1 1 1 1 1 1 1
          1 1 1 1 1 1 1 1 1 1 1 1
          1 1 1 1 1 1 1 1 1 1 1 1
          1 1 1 1 1 1 1 1 1 1 1 1
          1 1 1 1 1 1 1 1 1 1 1 1
          1 1 1 1 1 1 1 1 1 1 1 1
          1 1 1 1 1 1 1 1 1 1 1 1
          1 1 1 1 1 1 1 1 1 1 1 1
          1 1 1 1 1 1 1 1 1 1 1 1
          1 1 1 1 1 1 1 1 1 1 1 1
          1 1 1 1 1 1 1 1 1 1 1 1
          1 1 1 1 1 1 1 1 1 1 1
        </DataArray>
        <DataArray type="Float32" Name="porosity" NumberOfComponents="1" format="ascii">
          0.35 0.35 0.35 0.35 0.35 0.35 0.35 0.35 0.35 0.35 0.35 0.35
          0.35 0.35 0.35 0.35 0.35 0.35 0.35 0.35 0.35 0.35 0.35 0.35
          0.35 0.35 0.35 0.35 0.35 0.35 0.35 0.35 0.35 0.35 0.35 0.35
          0.35 0.35 0.35 0.35 0.35 0.35 0.35 0.35 0.35 0.35 0.35 0.35
          0.35 0.35 0.35 0.35 0.35 0.35 0.35 0.35 0.35 0.35 0.35 0.35
          0.35 0.35 0.35 0.35 0.35 0.35 0.35 0.35 0.35 0.35 0.35 0.35
          0.35 0.35 0.35 0.35 0.35 0.35 0.35 0.35 0.35 0.35 0.35 0.35
          0.35 0.35 0.35 0.35 0.35 0.35 0.35 0.35 0.35 0.35 0.35 0.35
          0.35 0.35 0.35 0.35 0.35 0.35 0.35 0.35 0.35 0.35 0.35 0.35
          0.35 0.35 0.35 0.35 0.35 0.35 0.35 0.35 0.35 0.35 0.35 0.35
          0.35 0.35 0.35 0.35 0.35 0.35 0.35 0.35 0.35 0.35 0.35 0.35
          0.35 0.35 0.35 0.35 0.35 0.35 0.35 0.35 0.35 0.35 0.35 0.35
          0.35 0.35 0.35 0.35 0.35 0.35 0.35 0.35 0.35 0.35 0.35 0.35
          0.35 0.35 0.35 0.35 0.35 0.35 0.35 0.35 0.35 0.35 0.35 0.35
          0.35 0.35 0.35 0.35 0.35 0.35 0.35 0.35 0.35 0.35 0.35 0.35
          0.35 0.35 0.35 0.35 0.35 0.35 0.35 0.35 0.35 0.35 0.35 0.35
          0.35 0.35 0.35 0.35 0.35 0.35 0.35 0.35 0.35 0.35 0.35 0.35
          0.35 0.35 0.35 0.35 0.35 0.35 0.35 0.35 0.35 0.35 0.35 0.35
          0.35 0.35 0.35 0.35 0.35 0.35 0.35 0.35 0.35 0.35 0.35 0.35
          0.35 0.35 0.35 0.35 0.35 0.35 0.35 0.35 0.35 0.35 0.35 0.35
          0.35 0.35 0.35 0.35 0.35 0.35 0.35 0.35 0.35 0.35 0.35
        </DataArray>
        <DataArray type="Float32" Name="temperature" NumberOfComponents="1" format="ascii">
          293.15 293.15 293.15 293.15 293.15 293.15 293.15 293.15 293.15 293.15 293.15 293.15
          293.15 293.15 293.15 293.15 293.15 293.15 293.15 293.15 293.15 293.15 293.15 293.15
          293.15 293.15 293.15 293.15 293.15 293.15 293.15 293.15 293.15 293.15 293.15 293.15
          293.15 293.15 293.15 293.15 293.15 293.15 293.15 293.15 293.15 293.15 293.15 293.15
          293.15 293.15 293.15 293.15 293.15 293.15 293.15 293.15 293.15 293.15 293.15 293.15
          293.15 293.15 293.15 293.15 293.15 293.15 293.15 293.15 293.15 293.15 293.15 293.15
          293.15 293.15 293.15 293.15 293.15 293.15 293.15 293.15 293.15 293.15 293.15 293.15
          293.15 293.15 293.15 293.15 293.15 293.15 293.15 293.15 293.15 293.15 293.15 293.15
          293.15 293.15 293.15 293.15 293.15 293.15 293.15 293.15 293.15 293.15 293.15 293.15
          293.15 293.15 293.15 293.15 293.15 293.15 293.15 293.15 293.15 293.15 293.15 293.15
          293.15 293.15 293.15 293.15 293.15 293.15 293.15 293.15 293.15 293.15 293.15 293.15
          293.15 293.15 293.15 293.15 293.15 293.15 293.15 293.15 293.15 293.15 293.15 293.15
          293.15 293.15 293.15 293.15 293.15 293.15 293.15 293.15 293.15 293.15 293.15 293.15
          293.15 293.15 293.15 293.15 293.15 293.15 293.15 293.15 293.15 293.15 293.15 293.15
          293.15 293.15 293.15 293.15 293.15 293.15 293.15 293.15 293.15 293.15 293.15 293.15
          293.15 293.15 293.15 293.15 293.15 293.15 293.15 293.15 293.15 293.15 293.15 293.15
          293.15 293.15 293.15 293.15 293.15 293.15 293.15 293.15 293.15 293.15 293.15 293.15
          293.15 293.15 293.15 293.15 293.15 293.15 293.15 293.15 293.15 293.15 293.15 293.15
          293.15 293.15 293.15 293.15 293.15 293.15 293.15 293.15 293.15 293.15 293.15 293.15
          293.15 293.15 293.15 293.15 293.15 293.15 293.15 293.15 293.15 293.15 293.15 293.15
          293.15 293.15 293.15 293.15 293.15 293.15 293.15 293.15 293.15 293.15 293.15
        </DataArray>
        <DataArray type="Float32" Name="moleFrac_l^H2O" NumberOfComponents="1" format="ascii">
          0.211907 0.211907 0.211907 0.211907 0.211907 0.211907 0.211907 0.211907 0.211907 0.211907 0.211907 0.211907
          0.211907 0.211907 0.211907 0.211907 0.211907 0.211907 0.211907 0.211907 0.211907 0.211907 0.211907 0.211907
          0.211907 0.211907 0.211907 0.211907 0.211907 0.211907 0.211907 0.211907 0.211907 0.211907 0.211907 0.211907
          0.211907 0.211907 0.211907 0.211907 0.211907 0.211907 0.211907 0.211907 0.211907 0.211907 0.211907 0.211907
          0.211907 0.211907 0.211907 0.211907 0.211907 0.211907 0.211907 0.211907 0.211907 0.211907 0.211907 0.211907
          0.211907 0.211907 0.211907 0.211907 0.211907 0.211907 0.211907 0.211907 0.211907 0.211907 0.211907 0.211907
          0.211907 0.211907 0.211907 0.211907 0.211907 0.211907 0.211907 0.211907 0.211907 0.211907 0.211907 0.211907
          0.211907 0.211907 0.211907 0.211907 0.211907 0.211907 0.211907 0.211907 0.211907 0.211907 0.211907 0.211907
          0.211907 0.211907 0.211907 0.211907 0.211907 0.211907 0.211907 0.211907 0.211907 0.211907 0.211907 0.211907
          0.211907 0.211907 0.211907 0.211907 0.211907 0.211907 0.211907 0.211907 0.211907 0.211907 0.211907 0.211907
          0.211907 0.211907 0.211907 0.211907 0.211907 0.211907 0.211907 0.211907 0.211907 0.211907 0.211907 0.211907
          0.211907 0.211907 0.211907 0.211907 0.211907 0.211907 0.211907 0.211907 0.211907 0.211907 0.211907 0.211907
          0.211907 0.211907 0.211907 0.211907 0.211907 0.211907 0.211907 0.211907 0.211907 0.211907 0.211907 0.211907
          0.211907 0.211907 0.211907 0.211907 0.211907 0.211907 0.211907 0.211907 0.211907 0.211907 0.211907 0.211907
          0.211907 0.211907 0.211907 0.211907 0.211907 0.211907 0.211907 0.211907 0.211907 0.211907 0.211907 0.211907
          0.211907 0.211907 0.211907 0.211907 0.211907 0.211907 0.211907 0.211907 0.211907 0.211907 0.211907 0.211907
          0.211907 0.211907 0.211907 0.211907 0.211907 0.211907 0.211907 0.211907 0.211907 0.211907 0.211907 0.211907
          0.211907 0.211907 0.211907 0.211907 0.211907 0.211907 0.211907 0.211907 0.211907 0.211907 0.211907 0.211907
          0.211907 0.211907 0.211907 0.211907 0.211907 0.211907 0.211907 0.211907 0.211907 0.211907 0.211907 0.211907
          0.211907 0.211907 0.211907 0.211907 0.211907 0.211907 0.211907 0.211907 0.211907 0.211907 0.211907 0.211907
          0.211907 0.211907 0.211907 0.211907 0.211907 0.211907 0.211907 0.211907 0.211907 0.211907 0.211907
        </DataArray>
        <DataArray type="Float32" Name="moleFrac_l^N2" NumberOfComponents="1" format="ascii">
          1.24503e-05 1.24503e-05 1.24503e-05 1.24503e-05 1.24503e-05 1.24503e-05 1.24503e-05 1.24503e-05 1.24503e-05 1.24503e-05 1.24503e-05 1.24503e-05
          1.24503e-05 1.24503e-05 1.24503e-05 1.24503e-05 1.24503e-05 1.24503e-05 1.24503e-05 1.24503e-05 1.24503e-05 1.24503e-05 1.24503e-05 1.24503e-05
          1.24503e-05 1.24503e-05 1.24503e-05 1.24503e-05 1.24503e-05 1.24503e-05 1.24503e-05 1.24503e-05 1.24503e-05 1.24503e-05 1.24503e-05 1.24503e-05
          1.24503e-05 1.24503e-05 1.24503e-05 1.24503e-05 1.24503e-05 1.24503e-05 1.24503e-05 1.24503e-05 1.24503e-05 1.24503e-05 1.24503e-05 1.24503e-05
          1.24503e-05 1.24503e-05 1.24503e-05 1.24503e-05 1.24503e-05 1.24503e-05 1.24503e-05 1.24503e-05 1.24503e-05 1.24503e-05 1.24503e-05 1.24503e-05
          1.24503e-05 1.24503e-05 1.24503e-05 1.24503e-05 1.24503e-05 1.24503e-05 1.24503e-05 1.24503e-05 1.24503e-05 1.24503e-05 1.24503e-05 1.24503e-05
          1.24503e-05 1.24503e-05 1.24503e-05 1.24503e-05 1.24503e-05 1.24503e-05 1.24503e-05 1.24503e-05 1.24503e-05 1.24503e-05 1.24503e-05 1.24503e-05
          1.24503e-05 1.24503e-05 1.24503e-05 1.24503e-05 1.24503e-05 1.24503e-05 1.24503e-05 1.24503e-05 1.24503e-05 1.24503e-05 1.24503e-05 1.24503e-05
          1.24503e-05 1.24503e-05 1.24503e-05 1.24503e-05 1.24503e-05 1.24503e-05 1.24503e-05 1.24503e-05 1.24503e-05 1.24503e-05 1.24503e-05 1.24503e-05
          1.24503e-05 1.24503e-05 1.24503e-05 1.24503e-05 1.24503e-05 1.24503e-05 1.24503e-05 1.24503e-05 1.24503e-05 1.24503e-05 1.24503e-05 1.24503e-05
          1.24503e-05 1.24503e-05 1.24503e-05 1.24503e-05 1.24503e-05 1.24503e-05 1.24503e-05 1.24503e-05 1.24503e-05 1.24503e-05 1.24503e-05 1.24503e-05
          1.24503e-05 1.24503e-05 1.24503e-05 1.24503e-05 1.24503e-05 1.24503e-05 1.24503e-05 1.24503e-05 1.24503e-05 1.24503e-05 1.24503e-05 1.24503e-05
          1.24503e-05 1.24503e-05 1.24503e-05 1.24503e-05 1.24503e-05 1.24503e-05 1.24503e-05 1.24503e-05 1.24503e-05 1.24503e-05 1.24503e-05 1.24503e-05
          1.24503e-05 1.24503e-05 1.24503e-05 1.24503e-05 1.24503e-05 1.24503e-05 1.24503e-05 1.24503e-05 1.24503e-05 1.24503e-05 1.24503e-05 1.24503e-05
          1.24503e-05 1.24503e-05 1.24503e-05 1.24503e-05 1.24503e-05 1.24503e-05 1.24503e-05 1.24503e-05 1.24503e-05 1.24503e-05 1.24503e-05 1.24503e-05
          1.24503e-05 1.24503e-05 1.24503e-05 1.24503e-05 1.24503e-05 1.24503e-05 1.24503e-05 1.24503e-05 1.24503e-05 1.24503e-05 1.24503e-05 1.24503e-05
          1.24503e-05 1.24503e-05 1.24503e-05 1.24503e-05 1.24503e-05 1.24503e-05 1.24503e-05 1.24503e-05 1.24503e-05 1.24503e-05 1.24503e-05 1.24503e-05
          1.24503e-05 1.24503e-05 1.24503e-05 1.24503e-05 1.24503e-05 1.24503e-05 1.24503e-05 1.24503e-05 1.24503e-05 1.24503e-05 1.24503e-05 1.24503e-05
          1.24503e-05 1.24503e-05 1.24503e-05 1.24503e-05 1.24503e-05 1.24503e-05 1.24503e-05 1.24503e-05 1.24503e-05 1.24503e-05 1.24503e-05 1.24503e-05
          1.24503e-05 1.24503e-05 1.24503e-05 1.24503e-05 1.24503e-05 1.24503e-05 1.24503e-05 1.24503e-05 1.24503e-05 1.24503e-05 1.24503e-05 1.24503e-05
          1.24503e-05 1.24503e-05 1.24503e-05 1.24503e-05 1.24503e-05 1.24503e-05 1.24503e-05 1.24503e-05 1.24503e-05 1.24503e-05 1.24503e-05
        </DataArray>
        <DataArray type="Float32" Name="moleFrac_g^H2O" NumberOfComponents="1" format="ascii">
          0.00498001 0.00498001 0.00498001 0.00498001 0.00498001 0.00498001 0.00498001 0.00498001 0.00498001 0.00498001 0.00498001 0.00498001
          0.00498001 0.00498001 0.00498001 0.00498001 0.00498001 0.00498001 0.00498001 0.00498001 0.00498001 0.00498001 0.00498001 0.00498001
          0.00498001 0.00498001 0.00498001 0.00498001 0.00498001 0.00498001 0.00498001 0.00498001 0.00498001 0.00498001 0.00498001 0.00498001
          0.00498001 0.00498001 0.00498001 0.00498001 0.00498001 0.00498001 0.00498001 0.00498001 0.00498001 0.00498001 0.00498001 0.00498001
          0.00498001 0.00498001 0.00498001 0.00498001 0.00498001 0.00498001 0.00498001 0.00498001 0.00498001 0.00498001 0.00498001 0.00498001
          0.00498001 0.00498001 0.00498001 0.00498001 0.00498001 0.00498001 0.00498001 0.00498001 0.00498001 0.00498001 0.00498001 0.00498001
          0.00498001 0.00498001 0.00498001 0.00498001 0.00498001 0.00498001 0.00498001 0.00498001 0.00498001 0.00498001 0.00498001 0.00498001
          0.00498001 0.00498001 0.00498001 0.00498001 0.00498001 0.00498001 0.00498001 0.00498001 0.00498001 0.00498001 0.00498001 0.00498001
          0.00498001 0.00498001 0.00498001 0.00498001 0.00498001 0.00498001 0.00498001 0.00498001 0.00498001 0.00498001 0.00498001 0.00498001
          0.00498001 0.00498001 0.00498001 0.00498001 0.00498001 0.00498001 0.00498001 0.00498001 0.00498001 0.00498001 0.00498001 0.00498001
          0.00498001 0.00498001 0.00498001 0.00498001 0.00498001 0.00498001 0.00498001 0.00498001 0.00498001 0.00498001 0.00498001 0.00498001
          0.00498001 0.00498001 0.00498001 0.00498001 0.00498001 0.00498001 0.00498001 0.00498001 0.00498001 0.00498001 0.00498001 0.00498001
          0.00498001 0.00498001 0.00498001 0.00498001 0.00498001 0.00498001 0.00498001 0.00498001 0.00498001 0.00498001 0.00498001 0.00498001
          0.00498001 0.00498001 0.00498001 0.00498001 0.00498001 0.00498001 0.00498001 0.00498001 0.00498001 0.00498001 0.00498001 0.00498001
          0.00498001 0.00498001 0.00498001 0.00498001 0.00498001 0.00498001 0.00498001 0.00498001 0.00498001 0.00498001 0.00498001 0.00498001
          0.00498001 0.00498001 0.00498001 0.00498001 0.00498001 0.00498001 0.00498001 0.00498001 0.00498001 0.00498001 0.00498001 0.00498001
          0.00498001 0.00498001 0.00498001 0.00498001 0.00498001 0.00498001 0.00498001 0.00498001 0.00498001 0.00498001 0.00498001 0.00498001
          0.00498001 0.00498001 0.00498001 0.00498001 0.00498001 0.00498001 0.00498001 0.00498001 0.00498001 0.00498001 0.00498001 0.00498001
          0.00498001 0.00498001 0.00498001 0.00498001 0.00498001 0.00498001 0.00498001 0.00498001 0.00498001 0.00498001 0.00498001 0.00498001
          0.00498001 0.00498001 0.00498001 0.00498001 0.00498001 0.00498001 0.00498001 0.00498001 0.00498001 0.00498001 0.00498001 0.00498001
          0.00498001 0.00498001 0.00498001 0.00498001 0.00498001 0.00498001 0.00498001 0.00498001 0.00498001 0.00498001 0.00498001
        </DataArray>
        <DataArray type="Float32" Name="moleFrac_g^N2" NumberOfComponents="1" format="ascii">
          0.99502 0.99502 0.99502 0.99502 0.99502 0.99502 0.99502 0.99502 0.99502 0.99502 0.99502 0.99502
          0.99502 0.99502 0.99502 0.99502 0.99502 0.99502 0.99502 0.99502 0.99502 0.99502 0.99502 0.99502
          0.99502 0.99502 0.99502 0.99502 0.99502 0.99502 0.99502 0.99502 0.99502 0.99502 0.99502 0.99502
          0.99502 0.99502 0.99502 0.99502 0.99502 0.99502 0.99502 0.99502 0.99502 0.99502 0.99502 0.99502
          0.99502 0.99502 0.99502 0.99502 0.99502 0.99502 0.99502 0.99502 0.99502 0.99502 0.99502 0.99502
          0.99502 0.99502 0.99502 0.99502 0.99502 0.99502 0.99502 0.99502 0.99502 0.99502 0.99502 0.99502
          0.99502 0.99502 0.99502 0.99502 0.99502 0.99502 0.99502 0.99502 0.99502 0.99502 0.99502 0.99502
          0.99502 0.99502 0.99502 0.99502 0.99502 0.99502 0.99502 0.99502 0.99502 0.99502 0.99502 0.99502
          0.99502 0.99502 0.99502 0.99502 0.99502 0.99502 0.99502 0.99502 0.99502 0.99502 0.99502 0.99502
          0.99502 0.99502 0.99502 0.99502 0.99502 0.99502 0.99502 0.99502 0.99502 0.99502 0.99502 0.99502
          0.99502 0.99502 0.99502 0.99502 0.99502 0.99502 0.99502 0.99502 0.99502 0.99502 0.99502 0.99502
          0.99502 0.99502 0.99502 0.99502 0.99502 0.99502 0.99502 0.99502 0.99502 0.99502 0.99502 0.99502
          0.99502 0.99502 0.99502 0.99502 0.99502 0.99502 0.99502 0.99502 0.99502 0.99502 0.99502 0.99502
          0.99502 0.99502 0.99502 0.99502 0.99502 0.99502 0.99502 0.99502 0.99502 0.99502 0.99502 0.99502
          0.99502 0.99502 0.99502 0.99502 0.99502 0.99502 0.99502 0.99502 0.99502 0.99502 0.99502 0.99502
          0.99502 0.99502 0.99502 0.99502 0.99502 0.99502 0.99502 0.99502 0.99502 0.99502 0.99502 0.99502
          0.99502 0.99502 0.99502 0.99502 0.99502 0.99502 0.99502 0.99502 0.99502 0.99502 0.99502 0.99502
          0.99502 0.99502 0.99502 0.99502 0.99502 0.99502 0.99502 0.99502 0.99502 0.99502 0.99502 0.99502
          0.99502 0.99502 0.99502 0.99502 0.99502 0.99502 0.99502 0.99502 0.99502 0.99502 0.99502 0.99502
          0.99502 0.99502 0.99502 0.99502 0.99502 0.99502 0.99502 0.99502 0.99502 0.99502 0.99502 0.99502
          0.99502 0.99502 0.99502 0.99502 0.99502 0.99502 0.99502 0.99502 0.99502 0.99502 0.99502
        </DataArray>
      </PointData>
      <Points>
        <DataArray type="Float32" Name="Coordinates" NumberOfComponents="3" format="ascii">