<?xml version="1.0"?>
<VTKFile type="UnstructuredGrid" version="0.1" byte_order="LittleEndian">
  <UnstructuredGrid>
    <Piece NumberOfCells="1400" NumberOfPoints="1491">
      <PointData Scalars="pressure_wetting">
        <DataArray type="Float32" Name="pressure_wetting" NumberOfComponents="1" format="ascii">
          100000 100000 99997.2 99997.2 99994.4 99994.4 99991.6 99991.6 99988.8 99988.8 100000 99997.2
          99994.4 99991.6 99988.8 99986 99986 99983.1 99983.1 99980.3 99980.3 99977.5 99977.5 99974.7
          99974.7 99986 99983.1 99980.3 99977.5 99974.7 100000 99997.2 99994.4 100000 99997.2 99994.4
          99991.6 99988.8 99991.6 99988.8 100000 99997.2 99994.4 99991.6 99988.8 99986 99983.1 99980.3
          99986 99983.1 99980.3 99977.5 99974.7 99977.5 99974.7 99986 99983.1 99980.3 99977.5 99974.7
          99971.9 99971.9 99969.1 99969.1 99966.3 99966.3 99963.5 99963.5 99971.9 99969.1 99966.3 99963.5
          99960.7 99960.7 99957.8 99957.8 99955 99955 99952.2 99952.2 99960.7 99957.9 99955 99952.2
          99971.9 99969.1 99971.9 99969.1 99966.3 99963.5 99966.3 99963.5 99971.9 99969.1 99966.3 99963.5
          99960.7 99957.9 99960.7 99957.9 99955 99952.2 99955 99952.2 99960.7 99957.9 99955 99952.2
          100000 99997.2 99994.4 99991.6 99988.8 100000 99997.2 99994.4 99991.6 99988.8 99986 99983.1
          99980.3 99977.5 99974.7 99986 99983.1 99980.3 99977.5 99974.7 100000 99997.2 99994.4 100000
          99997.2 99994.4 99991.6 99988.8 99991.6 99988.8 100000 99997.2 99994.4 99991.6 99988.8 99986
          99983.1 99980.3 99986 99983.2 99980.3 99977.5 99974.7 99977.5 99974.7 99986 99983.2 99980.3
          99977.5 99974.7 99971.9 99969.1 99966.3 99963.5 99971.9 99969.1 99966.3 99963.5 99960.7 99957.9
          99955 99952.2 99960.7 99957.9 99955.1 99952.2 99971.9 99969.1 99971.9 99969.1 99966.3 99963.5
          99966.3 99963.5 99971.9 99969.1 99966.3 99963.5 99960.7 99957.9 99960.7 99957.9 99955.1 99952.2
          99955.1 99952.3 99960.7 99957.9 99955.1 99952.3 99949.4 99949.4 99946.6 99946.6 99943.8 99943.8
          99941 99941 99938.1 99938.1 99949.4 99946.6 99943.8 99941 99938.1 99935.3 99935.3 99932.5
          99932.5 99929.7 99929.7 99926.8 99926.8 99935.3 99932.5 99929.7 99926.8 99949.4 99946.6 99943.8
          99949.4 99946.6 99943.8 99941 99938.1 99941 99938.1 99949.4 99946.6 99943.8 99941 99938.2
          99935.3 99932.5 99935.3 99932.5 99929.7 99926.9 99929.7 99926.9 99935.3 99932.5 99929.7 99926.9
          99924 99924 99921.2 99921.2 99918.3 99918.3 99915.5 99915.5 99912.6 99912.6 99924 99921.2
          99918.3 99915.5 99912.7 99909.8 99909.8 99906.9 99906.9 99904.1 99904.1 99901.2 99901.2 99909.8
          99907 99904.1 99901.2 99924 99921.2 99924 99921.2 99918.4 99915.5 99912.7 99918.4 99915.5
          99912.7 99924.1 99921.2 99918.4 99915.6 99912.7 99909.8 99907 99909.9 99907 99904.1 99901.2
          99904.1 99901.3 99909.9 99907 99904.2 99901.3 99949.4 99946.6 99943.8 99941 99938.2 99949.4
          99946.6 99943.8 99941 99938.2 99935.4 99932.5 99929.7 99926.9 99935.4 99932.5 99929.7 99926.9
          99949.4 99946.6 99943.8 99949.4 99946.6 99943.8 99941 99938.2 99941 99938.2 99949.5 99946.6
          99943.8 99941 99938.2 99935.4 99932.6 99935.4 99932.6 99929.8 99926.9 99929.8 99927 99935.4
          99932.6 99929.8 99927 99924.1 99921.2 99918.4 99915.6 99912.8 99924.1 99921.3 99918.5 99915.6
          99912.8 99909.9 99907.1 99904.2 99901.4 99910 99907.1 99904.3 99901.5 99924.1 99921.3 99924.1
          99921.3 99918.5 99915.7 99912.8 99918.5 99915.7 99912.9 99924.2 99921.4 99918.6 99915.7 99912.9
          99910 99907.2 99910.1 99907.3 99904.4 99901.5 99904.4 99901.6 99910.1 99907.3 99904.5 99901.7
          100000 99997.2 99994.4 99991.6 99988.8 100000 99997.2 99994.4 99991.6 99988.8 99986 99983.2
          99980.4 99977.5 99974.7 99986 99983.2 99980.4 99977.5 99974.7 100000 99997.2 99994.4 100000
          99997.2 99994.4 99991.6 99988.8 99991.6 99988.8 100000 99997.2 99994.4 99991.6 99988.8 99986
          99983.2 99980.4 99986 99983.2 99980.4 99977.5 99974.7 99977.5 99974.7 99986 99983.2 99980.4
          99977.5 99974.7 99971.9 99969.1 99966.3 99963.5 99971.9 99969.1 99966.3 99963.5 99960.7 99957.9
          99955.1 99952.3 99960.7 99957.9 99955.1 99952.3 99971.9 99969.1 99971.9 99969.1 99966.3 99963.5
          99966.3 99963.5 99971.9 99969.1 99966.3 99963.5 99960.7 99957.9 99960.7 99957.9 99955.1 99952.3
          99955.1 99952.3 99960.7 99957.9 99955.1 99952.3 100000 99997.2 99994.4 99991.6 99988.8 100000
          99997.2 99994.4 99991.6 99988.8 99986 99983.2 99980.4 99977.5 99974.7 99986 99983.2 99980.4
          99977.5 99974.7 100000 99997.2 99994.4 100000 99997.2 99994.4 99991.6 99988.8 99991.6 99988.8
          100000 99997.2 99994.4 99991.6 99988.8 99986 99983.2 99980.4 99986 99983.2 99980.4 99977.5
          99974.7 99977.5 99974.7 99986 99983.2 99980.4 99977.5 99974.7 99971.9 99969.1 99966.3 99963.5
          99971.9 99969.1 99966.3 99963.5 99960.7 99957.9 99955.1 99952.3 99960.7 99957.9 99955.1 99952.3
          99971.9 99969.1 99971.9 99969.1 99966.3 99963.5 99966.3 99963.5 99971.9 99969.1 99966.3 99963.5
          99960.7 99957.9 99960.7 99957.9 99955.1 99952.3 99955.1 99952.3 99960.7 99957.9 99955.1 99952.3
          99949.5 99946.7 99943.8 99941 99938.2 99949.5 99946.7 99943.9 99941.1 99938.2 99935.4 99932.6
          99929.8 99927 99935.4 99932.6 99929.8 99927 99949.5 99946.7 99943.9 99949.5 99946.7 99943.9
          99941.1 99938.3 99941.1 99938.3 99949.5 99946.7 99943.9 99941.1 99938.3 99935.5 99932.6 99935.5
          99932.7 99929.9 99927 99929.9 99927.1 99935.5 99932.7 99929.9 99927.1 99924.2 99921.4 99918.6
          99915.8 99913 99924.2 99921.4 99918.6 99915.8 99913 99910.2 99907.4 99904.6 99901.8 99910.2
          99907.4 99904.6 99901.9 99924.2 99921.5 99924.3 99921.5 99918.7 99915.9 99913.1 99918.7 99915.9
          99913.1 99924.3 99921.5 99918.7 99915.9 99913.1 99910.3 99907.5 99910.3 99907.5 99904.7 99901.9
          99904.8 99902 99910.4 99907.6 99904.8 99902 99949.5 99946.7 99943.9 99941.1 99938.3 99949.5
          99946.7 99943.9 99941.1 99938.3 99935.5 99932.7 99929.9 99927.1 99935.5 99932.7 99929.9 99927.1
          99949.5 99946.7 99943.9 99949.5 99946.7 99943.9 99941.1 99938.3 99941.1 99938.3 99949.5 99946.7
          99943.9 99941.1 99938.3 99935.5 99932.7 99935.5 99932.7 99929.9 99927.1 99929.9 99927.1 99935.5
          99932.7 99929.9 99927.1 99924.3 99921.5 99918.7 99916 99913.2 99924.3 99921.5 99918.8 99916
          99913.2 99910.4 99907.6 99904.9 99902.1 99910.4 99907.7 99904.9 99902.1 99924.3 99921.5 99924.3
          99921.6 99918.8 99916 99913.2 99918.8 99916 99913.2 99924.3 99921.6 99918.8 99916 99913.2
          99910.4 99907.7 99910.5 99907.7 99904.9 99902.2 99904.9 99902.2 99910.5 99907.7 99904.9 99902.2
          99898.3 99898.3 99895.4 99895.4 99892.5 99892.5 99889.6 99889.6 99898.3 99895.5 99892.5 99889.6
          99886.7 99886.7 99883.7 99883.7 99880.7 99880.7 99877.7 99877.8 99874.7 99874.7 99886.7 99883.8
          99880.8 99877.8 99874.8 99898.4 99895.5 99898.4 99895.5 99892.6 99889.7 99892.7 99889.8 99898.5
          99895.6 99892.7 99889.9 99886.8 99883.8 99880.9 99886.9 99883.9 99881 99877.9 99874.9 99878
          99875 99887 99884 99881.1 99878.2 99875.2 99871.6 99871.7 99868.6 99868.6 99865.4 99865.5
          99862.2 99862.3 99871.7 99868.7 99865.5 99862.4 99859 99859 99855.7 99855.8 99852.3 99852.4
          99848.9 99849 99859.2 99855.9 99852.6 99849.1 99871.9 99868.8 99872 99869 99865.7 99862.6
          99865.9 99862.8 99872.2 99869.2 99866.2 99863.1 99859.4 99856.1 99859.7 99856.4 99852.8 99849.4
          99853.2 99849.8 99860 99856.9 99853.6 99850.4 99898.5 99895.7 99892.8 99890 99898.6 99895.8
          99892.9 99890.1 99887.1 99884.2 99881.3 99878.4 99875.4 99887.2 99884.3 99881.4 99878.6 99875.6
          99898.7 99895.9 99898.8 99896 99893 99890.2 99893.1 99890.3 99898.9 99896.1 99893.3 99890.5
          99887.3 99884.5 99881.6 99887.5 99884.7 99881.8 99878.8 99875.9 99879 99876.2 99887.6 99884.8
          99882 99879.2 99876.4 99872.5 99869.5 99866.5 99863.5 99872.7 99869.8 99866.9 99863.9 99860.4
          99857.3 99854.2 99851 99860.9 99857.9 99854.8 99851.7 99873 99870.1 99873.3 99870.5 99867.2
          99864.3 99867.6 99864.8 99873.6 99870.8 99868 99865.2 99861.4 99858.4 99861.9 99859 99855.5
          99852.5 99856.2 99853.3 99862.4 99859.7 99856.9 99854.1 99845.4 99845.4 99841.8 99841.8 99838.1
          99838.1 99834.2 99834.3 99830.4 99830.4 99845.6 99842 99838.3 99834.5 99830.5 99826.5 99826.4
          99822.6 99822.5 99818.8 99818.6 99815.5 99815 99826.4 99822.2 99817.9 99813.6 99846 99842.4
          99838.7 99846.4 99842.9 99839.2 99834.8 99830.8 99835.4 99831.4 99847 99843.6 99840 99836.3
          99832.3 99826.6 99822.1 99827.1 99822.4 99817.3 99812.1 99817.3 99811.3 99828.1 99823.5 99818.3
          99812.1 99812.9 99812 99811.8 99810.1 99813.2 99810.4 99818.8 99814.3 99830.9 99824.3 99809.4
          99805.5 99802.6 99801.6 99804.5 99852.9 99843.9 99888 99877.7 99938.2 99930.2 100000 100000
          99815.4 99842.3 99899.2 100000 99806.3 99799.7 99804.2 99795.3 99792.2 99783.6 99774 99783.4
          99766.8 99742.4 99804.6 99794.8 99781.2 99761.3 99731.4 99765.8 99770.5 99710.7 99716.1 99818.5
          100000 99729.6 99688.9 99705.4 99736.7 99730.4 99688.9 99847.8 99844.4 99841 99837.4 99833.7
          99848.6 99845.4 99842.1 99838.8 99835.3 99829.7 99825.3 99820.5 99814.9 99831.7 99827.9 99823.8
          99819.2 99849.5 99846.5 99843.4 99850.5 99847.6 99844.7 99840.3 99837.2 99841.9 99839.1 99851.4
          99848.7 99846 99843.4 99841 99834.1 99830.9 99836.4 99833.9 99827.6 99824.4 99831.5 99829.5
          99838.6 99836.5 99834.8 99833.8 99808.1 99799.4 99787.6 99771 99746.2 99814.1 99808.1 99800.9
          99792.1 99782 99713.6 99716.8 99729.6 99688.9 99772.7 99775.5 99821.2 100000 99821.3 99818.4
          99828.2 99827.9 99816.1 99815.3 99817.6 99829.5 99834.1 99843.7 99833.6 99835 99838.7 99846.1
          99858.9 99826.8 99851 99861.4 99891.4 99903.9 100000 99937.9 100000 99879.3 99909.7 99950.8
          100000 99899 99896.2 99893.4 99890.6 99899.1 99896.3 99893.5 99890.7 99887.8 99885 99882.2
          99879.5 99876.7 99888 99885.2 99882.4 99879.7 99876.9 99899.1 99896.4 99899.2 99896.5 99893.6
          99890.8 99893.7 99891 99899.3 99896.5 99893.8 99891.1 99888.1 99885.3 99882.6 99888.2 99885.5
          99882.8 99879.9 99877.2 99880.1 99877.4 99888.3 99885.6 99882.9 99880.2 99877.6 99873.9 99871.2
          99868.4 99865.7 99874.2 99871.5 99868.8 99866.1 99863 99860.2 99857.6 99854.9 99863.4 99860.8
          99858.2 99855.6 99874.5 99871.8 99874.7 99872.1 99869.1 99866.5 99869.5 99866.9 99874.9 99872.3
          99869.7 99867.2 99863.9 99861.3 99864.3 99861.8 99858.8 99856.3 99859.3 99856.9 99864.7 99862.2
          99859.8 99857.4 99899.3 99896.6 99893.9 99891.1 99899.4 99896.7 99893.9 99891.2 99888.4 99885.7
          99883.1 99880.4 99877.8 99888.5 99885.8 99883.2 99880.5 99877.9 99899.4 99896.7 99899.4 99896.7
          99894 99891.3 99894 99891.3 99899.5 99896.7 99894 99891.3 99888.6 99885.9 99883.2 99888.6
          99885.9 99883.3 99880.6 99878 99880.6 99878 99888.6 99885.9 99883.3 99880.7 99878.1 99875.1
          99872.5 99870 99867.5 99875.3 99872.7 99870.2 99867.7 99865 99862.5 99860.1 99857.8 99865.2
          99862.8 99860.5 99858.2 99875.4 99872.8 99875.5 99872.9 99870.3 99867.8 99870.4 99867.9 99875.5
          99872.9 99870.4 99868 99865.4 99863 99865.5 99863.1 99860.7 99858.4 99860.8 99858.5 99865.5
          99863.2 99860.8 99858.6 99852.3 99849.7 99847.2 99844.8 99842.6 99853.1 99850.7 99848.3 99846
          99843.9 99840.5 99838.7 99837.4 99836.7 99842 99840.3 99839 99838.2 99853.9 99851.5 99849.2
          99854.5 99852.2 99850 99847 99845 99847.9 99845.9 99855.1 99852.9 99850.7 99848.6 99846.6
          99843.1 99841.4 99843.9 99842.1 99839.9 99838.7 99840.4 99838.7 99844.7 99842.8 99840.8 99838.7
          99837 99838.8 99843 99850.7 99863.6 99838.2 99839.4 99842.4 99848.2 99858.4 99883.8 99913.3
          99952.9 100000 99875.5 99903 99944.6 100000 99837.9 99837.6 99836.9 99834.8 99838.1 99839.8
          99843.9 99832 99828.1 99822.5 99836.2 99832.8 99827.6 99818.8 99803.4 99853.2 99873.8 99816
          99817.3 99918.2 100000 99851.9 100000 99781.5 99796.8 99810.1 99768.6 99855.6 99853.4 99851.2
          99849.2 99847.2 99855.9 99853.8 99851.7 99849.7 99847.8 99845.3 99843.5 99841.5 99839.4 99846
          99844.2 99842.5 99840.7 99856.2 99854.1 99852 99856.4 99854.3 99852.3 99850.1 99848.3 99850.3
          99848.6 99856.4 99854.3 99852.3 99850.4 99848.7 99846.5 99844.9 99846.9 99845.5 99843.5 99842.2
          99844.2 99843.4 99847.1 99845.6 99844.5 99843.8 99836.8 99833.3 99828 99819 99803.4 99838.7
          99836.3 99833.3 99828.9 99822.9 99780.8 99794 99808.4 99766.9 99816.1 99816.8 99851.1 100000
          99841.1 99840.4 99843.1 99843.6 99840.2 99841.2 99844.5 99845.7 99850.2 99859.1 99843.8 99844.8
          99847.7 99853.5 99864.1 99853.1 99873.4 99875 99901.8 99917.8 100000 99943.7 100000 99881.9
          99910 99950.2 100000
        </DataArray>
        <DataArray type="Float32" Name="pressure_nonwetting" NumberOfComponents="1" format="ascii">
          100963 100963 100960 100960 100958 100958 100955 100955 100952 100952 100963 100960
          100958 100955 100952 100949 100949 100946 100946 100943 100943 100941 100941 100938
          100938 100949 100946 100943 100941 100938 100963 100960 100958 100963 100960 100958
          100955 100952 100955 100952 100963 100960 100958 100955 100952 100949 100946 100943
          100949 100946 100943 100941 100938 100941 100938 100949 100946 100943 100941 100938
          100935 100935 100932 100932 100929 100929 100927 100927 100935 100932 100929 100927
          100924 100924 100921 100921 100918 100918 100915 100915 100924 100921 100918 100915
          100935 100932 100935 100932 100929 100927 100929 100927 100935 100932 100929 100927
          100924 100921 100924 100921 100918 100915 100918 100915 100924 100921 100918 100915
          100963 100960 100958 100955 100952 100963 100960 100958 100955 100952 100949 100946
          100943 100941 100938 100949 100946 100943 100941 100938 100963 100960 100958 100963
          100960 100958 100955 100952 100955 100952 100963 100960 100958 100955 100952 100949
          100946 100943 100949 100946 100943 100941 100938 100941 100938 100949 100946 100943
          100941 100938 100935 100932 100929 100927 100935 100932 100929 100927 100924 100921
          100918 100915 100924 100921 100918 100915 100935 100932 100935 100932 100929 100927
          100929 100927 100935 100932 100929 100927 100924 100921 100924 100921 100918 100915
          100918 100915 100924 100921 100918 100915 100913 100913 100910 100910 100907 100907
          100904 100904 100901 100901 100913 100910 100907 100904 100901 100898 100898 100896
          100896 100893 100893 100890 100890 100898 100896 100893 100890 100913 100910 100907
          100913 100910 100907 100904 100901 100904 100901 100913 100910 100907 100904 100901
          100898 100896 100898 100896 100893 100890 100893 100890 100898 100896 100893 100890
          100887 100887 100884 100884 100881 100881 100879 100879 100876 100876 100887 100884
          100881 100879 100876 100873 100873 100870 100870 100867 100867 100864 100864 100873
          100870 100867 100864 100887 100884 100887 100884 100881 100879 100876 100882 100879
          100876 100887 100884 100882 100879 100876 100873 100870 100873 100870 100867 100864
          100867 100864 100873 100870 100867 100864 100913 100910 100907 100904 100901 100913
          100910 100907 100904 100901 100898 100896 100893 100890 100898 100896 100893 100890
          100913 100910 100907 100913 100910 100907 100904 100901 100904 100901 100913 100910
          100907 100904 100901 100899 100896 100899 100896 100893 100890 100893 100890 100899
          100896 100893 100890 100887 100884 100882 100879 100876 100887 100884 100882 100879
          100876 100873 100870 100867 100865 100873 100870 100867 100865 100887 100884 100887
          100884 100882 100879 100876 100882 100879 100876 100887 100884 100882 100879 100876
          100873 100870 100873 100870 100868 100865 100868 100865 100873 100870 100868 100865
          100963 100960 100958 100955 100952 100963 100960 100958 100955 100952 100949 100946
          100943 100941 100938 100949 100946 100943 100941 100938 100963 100960 100958 100963
          100960 100958 100955 100952 100955 100952 100963 100960 100958 100955 100952 100949
          100946 100943 100949 100946 100943 100941 100938 100941 100938 100949 100946 100943
          100941 100938 100935 100932 100929 100927 100935 100932 100929 100927 100924 100921
          100918 100915 100924 100921 100918 100915 100935 100932 100935 100932 100929 100927
          100929 100927 100935 100932 100929 100927 100924 100921 100924 100921 100918 100915
          100918 100915 100924 100921 100918 100915 100963 100960 100958 100955 100952 100963
          100960 100958 100955 100952 100949 100946 100943 100941 100938 100949 100946 100943
          100941 100938 100963 100960 100958 100963 100960 100958 100955 100952 100955 100952
          100963 100960 100958 100955 100952 100949 100946 100943 100949 100946 100943 100941
          100938 100941 100938 100949 100946 100943 100941 100938 100935 100932 100929 100927
          100935 100932 100929 100927 100924 100921 100918 100915 100924 100921 100918 100915
          100935 100932 100935 100932 100929 100927 100929 100927 100935 100932 100929 100927
          100924 100921 100924 100921 100918 100915 100918 100915 100924 100921 100918 100915
          100913 100910 100907 100904 100901 100913 100910 100907 100904 100901 100899 100896
          100893 100890 100899 100896 100893 100890 100913 100910 100907 100913 100910 100907
          100904 100901 100904 100901 100913 100910 100907 100904 100901 100899 100896 100899
          100896 100893 100890 100893 100890 100899 100896 100893 100890 100887 100885 100882
          100879 100876 100887 100885 100882 100879 100876 100873 100871 100868 100865 100873
          100871 100868 100865 100887 100885 100887 100885 100882 100879 100876 100882 100879
          100876 100887 100885 100882 100879 100876 100873 100871 100873 100871 100868 100865
          100868 100865 100873 100871 100868 100865 100913 100910 100907 100904 100901 100913
          100910 100907 100904 100901 100899 100896 100893 100890 100899 100896 100893 100890
          100913 100910 100907 100913 100910 100907 100904 100901 100904 100901 100913 100910
          100907 100904 100901 100899 100896 100899 100896 100893 100890 100893 100890 100899
          100896 100893 100890 100887 100885 100882 100879 100876 100887 100885 100882 100879
          100876 100874 100871 100868 100865 100874 100871 100868 100865 100887 100885 100887
          100885 100882 100879 100876 100882 100879 100876 100887 100885 100882 100879 100876
          100874 100871 100874 100871 100868 100865 100868 100865 100874 100871 100868 100865
          100861 100861 100859 100859 100856 100856 100853 100853 100861 100859 100856 100853
          100850 100850 100847 100847 100844 100844 100841 100841 100838 100838 100850 100847
          100844 100841 100838 100862 100859 100862 100859 100856 100853 100856 100853 100862
          100859 100856 100853 100850 100847 100844 100850 100847 100844 100841 100838 100841
          100838 100850 100847 100844 100841 100838 100835 100835 100832 100832 100829 100829
          100825 100825 100835 100832 100829 100826 100822 100822 100819 100819 100815 100816
          100812 100812 100822 100819 100816 100812 100835 100832 100835 100832 100829 100826
          100829 100826 100835 100832 100829 100826 100823 100819 100823 100820 100816 100813
          100816 100813 100823 100820 100817 100814 100862 100859 100856 100853 100862 100859
          100856 100853 100850 100847 100844 100841 100839 100850 100847 100845 100842 100839
          100862 100859 100862 100859 100856 100853 100856 100853 100862 100859 100856 100854
          100850 100848 100845 100851 100848 100845 100842 100839 100842 100839 100851 100848
          100845 100842 100840 100836 100833 100830 100827 100836 100833 100830 100827 100824
          100820 100817 100814 100824 100821 100818 100815 100836 100833 100836 100834 100830
          100827 100831 100828 100837 100834 100831 100828 100825 100822 100825 100822 100819
          100816 100819 100816 100826 100823 100820 100817 100809 100809 100805 100805 100801
          100801 100797 100797 100794 100794 100809 100805 100801 100798 100794 100790 100790
          100786 100786 100782 100782 100779 100778 100790 100785 100781 100777 100809 100806
          100802 100810 100806 100802 100798 100794 100799 100795 100810 100807 100803 100799
          100795 100790 100785 100790 100786 100780 100775 100780 100774 100791 100787 100781
          100775 100776 100775 100775 100773 100776 100774 100782 100777 100794 100787 100773
          100769 100766 100765 100768 100816 100807 100851 100841 100901 100893 100963 100963
          100778 100805 100862 100963 100769 100763 100767 100758 100755 100747 100737 100747
          100730 100705 100768 100758 100744 100724 100693 100728 100729 100666 100598 100769
          100963 100468 100167 100641 100551 100389 100105 100811 100808 100804 100801 100797
          100812 100809 100805 100802 100798 100793 100788 100784 100778 100795 100791 100787
          100782 100813 100810 100807 100814 100811 100808 100803 100800 100805 100802 100815
          100812 100809 100807 100804 100797 100794 100800 100797 100791 100788 100795 100793
          100802 100800 100798 100797 100771 100762 100751 100734 100709 100777 100771 100764
          100755 100745 100669 100600 100469 100167 100735 100734 100772 100963 100784 100782
          100791 100791 100779 100778 100781 100793 100797 100807 100797 100798 100802 100809
          100822 100790 100814 100825 100855 100867 100963 100901 100963 100842 100873 100914
          100963 100862 100859 100857 100854 100862 100859 100857 100854 100851 100848 100845
          100843 100840 100851 100848 100846 100843 100840 100862 100860 100862 100860 100857
          100854 100857 100854 100862 100860 100857 100854 100851 100848 100846 100851 100849
          100846 100843 100840 100843 100841 100851 100849 100846 100843 100841 100837 100834
          100832 100829 100837 100835 100832 100829 100826 100823 100821 100818 100827 100824
          100821 100819 100838 100835 100838 100835 100832 100830 100833 100830 100838 100835
          100833 100830 100827 100824 100827 100825 100822 100819 100822 100820 100828 100825
          100823 100821 100862 100860 100857 100854 100863 100860 100857 100854 100852 100849
          100846 100844 100841 100852 100849 100846 100844 100841 100863 100860 100863 100860
          100857 100854 100857 100854 100863 100860 100857 100854 100852 100849 100846 100852
          100849 100846 100844 100841 100844 100841 100852 100849 100846 100844 100841 100838
          100836 100833 100831 100838 100836 100833 100831 100828 100826 100823 100821 100828
          100826 100824 100821 100839 100836 100839 100836 100833 100831 100834 100831 100839
          100836 100834 100831 100829 100826 100829 100826 100824 100822 100824 100822 100829
          100826 100824 100822 100815 100813 100810 100808 100806 100816 100814 100811 100809
          100807 100804 100802 100800 100800 100805 100803 100802 100801 100817 100815 100812
          100818 100815 100813 100810 100808 100811 100809 100818 100816 100814 100812 100810
          100806 100804 100807 100805 100803 100802 100804 100802 100808 100806 100804 100802
          100800 100802 100806 100814 100827 100801 100803 100806 100811 100822 100847 100876
          100916 100963 100839 100866 100908 100963 100801 100801 100800 100798 100801 100803
          100807 100795 100791 100786 100799 100796 100791 100782 100766 100816 100837 100778
          100775 100881 100963 100801 100963 100736 100674 100536 100198 100819 100816 100814
          100812 100810 100819 100817 100815 100813 100811 100808 100807 100805 100803 100809
          100807 100806 100804 100819 100817 100815 100820 100817 100815 100813 100811 100813
          100812 100820 100817 100815 100814 100812 100810 100808 100810 100809 100807 100805
          100807 100807 100810 100809 100808 100807 100800 100796 100791 100782 100766 100802
          100799 100796 100792 100786 100736 100674 100536 100198 100779 100775 100801 100963
          100804 100804 100806 100807 100803 100804 100808 100809 100813 100822 100807 100808
          100811 100817 100827 100816 100836 100838 100865 100880 100963 100907 100963 100845
          100873 100913 100963
        </DataArray>
        <DataArray type="Float32" Name="density_wetting" NumberOfComponents="1" format="ascii">
          1000 1000 1000 1000 1000 1000 1000 1000 1000 1000 1000 1000
          1000 1000 1000 1000 1000 1000 1000 1000 1000 1000 1000 1000
          1000 1000 1000 1000 1000 1000 1000 1000 1000 1000 1000 1000
          1000 1000 1000 1000 1000 1000 1000 1000 1000 1000 1000 1000
          1000 1000 1000 1000 1000 1000 1000 1000 1000 1000 1000 1000
          1000 1000 1000 1000 1000 1000 1000 1000 1000 1000 1000 1000
          1000 1000 1000 1000 1000 1000 1000 1000 1000 1000 1000 1000
          1000 1000 1000 1000 1000 1000 1000 1000 1000 1000 1000 1000
          1000 1000 1000 1000 1000 1000 1000 1000 1000 1000 1000 1000
          1000 1000 1000 1000 1000 1000 1000 1000 1000 1000 1000 1000
          1000 1000 1000 1000 1000 1000 1000 1000 1000 1000 1000 1000
          1000 1000 1000 1000 1000 1000 1000 1000 1000 1000 1000 1000
          1000 1000 1000 1000 1000 1000 1000 1000 1000 1000 1000 1000
          1000 1000 1000 1000 1000 1000 1000 1000 1000 1000 1000 1000
          1000 1000 1000 1000 1000 1000 1000 1000 1000 1000 1000 1000
          1000 1000 1000 1000 1000 1000 1000 1000 1000 1000 1000 1000
          1000 1000 1000 1000 1000 1000 1000 1000 1000 1000 1000 1000
          1000 1000 1000 1000 1000 1000 1000 1000 1000 1000 1000 1000
          1000 1000 1000 1000 1000 1000 1000 1000 1000 1000 1000 1000
          1000 1000 1000 1000 1000 1000 1000 1000 1000 1000 1000 1000
          1000 1000 1000 1000 1000 1000 1000 1000 1000 1000 1000 1000
          1000 1000 1000 1000 1000 1000 1000 1000 1000 1000 1000 1000
          1000 1000 1000 1000 1000 1000 1000 1000 1000 1000 1000 1000
          1000 1000 1000 1000 1000 1000 1000 1000 1000 1000 1000 1000
          1000 1000 1000 1000 1000 1000 1000 1000 1000 1000 1000 1000
          1000 1000 1000 1000 1000 1000 1000 1000 1000 1000 1000 1000
          1000 1000 1000 1000 1000 1000 1000 1000 1000 1000 1000 1000
          1000 1000 1000 1000 1000 1000 1000 1000 1000 1000 1000 1000
          1000 1000 1000 1000 1000 1000 1000 1000 1000 1000 1000 1000
          1000 1000 1000 1000 1000 1000 1000 1000 1000 1000 1000 1000
          1000 1000 1000 1000 1000 1000 1000 1000 1000 1000 1000 1000
          1000 1000 1000 1000 1000 1000 1000 1000 1000 1000 1000 1000
          1000 1000 1000 1000 1000 1000 1000 1000 1000 1000 1000 1000
          1000 1000 1000 1000 1000 1000 1000 1000 1000 1000 1000 1000
          1000 1000 1000 1000 1000 1000 1000 1000 1000 1000 1000 1000
          1000 1000 1000 1000 1000 1000 1000 1000 1000 1000 1000 1000
          1000 1000 1000 1000 1000 1000 1000 1000 1000 1000 1000 1000
          1000 1000 1000 1000 1000 1000 1000 1000 1000 1000 1000 1000
          1000 1000 1000 1000 1000 1000 1000 1000 1000 1000 1000 1000
          1000 1000 1000 1000 1000 1000 1000 1000 1000 1000 1000 1000
          1000 1000 1000 1000 1000 1000 1000 1000 1000 1000 1000 1000
          1000 1000 1000 1000 1000 1000 1000 1000 1000 1000 1000 1000
          1000 1000 1000 1000 1000 1000 1000 1000 1000 1000 1000 1000
          1000 1000 1000 1000 1000 1000 1000 1000 1000 1000 1000 1000
          1000 1000 1000 1000 1000 1000 1000 1000 1000 1000 1000 1000
          1000 1000 1000 1000 1000 1000 1000 1000 1000 1000 1000 1000
          1000 1000 1000 1000 1000 1000 1000 1000 1000 1000 1000 1000
          1000 1000 1000 1000 1000 1000 1000 1000 1000 1000 1000 1000
          1000 1000 1000 1000 1000 1000 1000 1000 1000 1000 1000 1000
          1000 1000 1000 1000 1000 1000 1000 1000 1000 1000 1000 1000
          1000 1000 1000 1000 1000 1000 1000 1000 1000 1000 1000 1000
          1000 1000 1000 1000 1000 1000 1000 1000 1000 1000 1000 1000
          1000 1000 1000 1000 1000 1000 1000 1000 1000 1000 1000 1000
          1000 1000 1000 1000 1000 1000 1000 1000 1000 1000 1000 1000
          1000 1000 1000 1000 1000 1000 1000 1000 1000 1000 1000 1000
          1000 1000 1000 1000 1000 1000 1000 1000 1000 1000 1000 1000
          1000 1000 1000 1000 1000 1000 1000 1000 1000 1000 1000 1000
          1000 1000 1000 1000 1000 1000 1000 1000 1000 1000 1000 1000
          1000 1000 1000 1000 1000 1000 1000 1000 1000 1000 1000 1000
          1000 1000 1000 1000 1000 1000 1000 1000 1000 1000 1000 1000
          1000 1000 1000 1000 1000 1000 1000 1000 1000 1000 1000 1000
          1000 1000 1000 1000 1000 1000 1000 1000 1000 1000 1000 1000
          1000 1000 1000 1000 1000 1000 1000 1000 1000 1000 1000 1000
          1000 1000 1000 1000 1000 1000 1000 1000 1000 1000 1000 1000
          1000 1000 1000 1000 1000 1000 1000 1000 1000 1000 1000 1000
          1000 1000 1000 1000 1000 1000 1000 1000 1000 1000 1000 1000
          1000 1000 1000 1000 1000 1000 1000 1000 1000 1000 1000 1000
          1000 1000 1000 1000 1000 1000 1000 1000 1000 1000 1000 1000
          1000 1000 1000 1000 1000 1000 1000 1000 1000 1000 1000 1000