<?xml version="1.0"?>
<VTKFile type="UnstructuredGrid" version="0.1" byte_order="LittleEndian">
  <UnstructuredGrid>
    <Piece NumberOfCells="1400" NumberOfPoints="1491">
      <PointData Scalars="pressure_wetting">
        <DataArray type="Float32" Name="pressure_wetting" NumberOfComponents="1" format="ascii">
          100000 100000 99997.6 99997.6 99995.1 99995.1 99992.7 99992.7 99990.2 99990.2 99987.8 99987.8
          99985.3 99985.3 99982.9 99982.9 99980.4 99980.4 99978 99978 99975.5 99975.6 99973.1 99973.1
          99970.7 99970.7 99968.2 99968.2 99965.8 99965.8 99963.3 99963.3 99960.9 99960.9 99958.4 99958.4
          99956 99956 99953.5 99953.5 99951.1 99951.1 99948.6 99948.6 99946.2 99946.2 99943.7 99943.7
          99941.2 99941.2 99938.8 99938.8 99936.3 99936.3 99933.9 99933.9 99931.4 99931.4 99928.9 99928.9
          99926.5 99926.5 99924 99924 99921.5 99921.5 99919 99919 99916.5 99916.5 99914 99914
          99911.5 99911.5 99909 99909 99906.4 99906.5 99903.9 99903.9 99901.3 99901.4 99898.8 99898.8
          99896.2 99896.2 99893.6 99893.6 99890.9 99890.9 99888.3 99888.3 99885.6 99885.6 99882.8 99882.9
          99880 99880.1 99877.2 99877.3 99874.3 99874.4 99871.4 99871.4 99868.4 99868.4 99865.3 99865.3
          99862.1 99862.2 99858.8 99858.9 99855.5 99855.5 99852 99852.1 99848.5 99848.5 99845 99844.9
          99841.5 99841.4 99838.4 99838 99835.8 99835.1 99834.4 99833.1 99835.2 99832.8 99839.7 99835.7
          99850.2 99844 99870.1 99861.3 99902.2 99892.4 99946.9 99940.1 100000 100000 100000 99997.6
          99995.1 99992.7 99990.2 99987.8 99985.3 99982.9 99980.4 99978 99975.6 99973.1 99970.7 99968.2
          99965.8 99963.3 99960.9 99958.4 99956 99953.5 99951.1 99948.6 99946.2 99943.7 99941.2 99938.8
          99936.3 99933.9 99931.4 99928.9 99926.5 99924 99921.5 99919 99916.5 99914 99911.5 99909
          99906.5 99903.9 99901.4 99898.8 99896.2 99893.6 99891 99888.4 99885.7 99882.9 99880.2 99877.4
          99874.5 99871.6 99868.6 99865.5 99862.4 99859.1 99855.7 99852.2 99848.6 99844.9 99841 99837.1
          99833.2 99829.6 99826.6 99824.9 99826.3 99834.3 99857.3 99912.6 100000 100000 99997.6 99995.1
          99992.7 99990.2 99987.8 99985.3 99982.9 99980.4 99978 99975.6 99973.1 99970.7 99968.2 99965.8
          99963.3 99960.9 99958.4 99956 99953.5 99951.1 99948.6 99946.2 99943.7 99941.3 99938.8 99936.3
          99933.9 99931.4 99928.9 99926.5 99924 99921.5 99919 99916.5 99914.1 99911.6 99909 99906.5
          99904 99901.4 99898.9 99896.3 99893.7 99891.1 99888.5 99885.8 99883.1 99880.3 99877.6 99874.7
          99871.8 99868.9 99865.8 99862.7 99859.4 99856.1 99852.6 99848.9 99844.9 99840.7 99836.2 99831.1
          99825.4 99818.7 99810.8 99802 99795.8 99813.6 99863.2 100000 100000 99997.6 99995.1 99992.7
          99990.2 99987.8 99985.3 99982.9 99980.4 99978 99975.6 99973.1 99970.7 99968.2 99965.8 99963.3
          99960.9 99958.4 99956 99953.5 99951.1 99948.6 99946.2 99943.7 99941.3 99938.8 99936.4 99933.9
          99931.4 99929 99926.5 99924 99921.5 99919.1 99916.6 99914.1 99911.6 99909.1 99906.6 99904.1
          99901.5 99899 99896.4 99893.8 99891.2 99888.6 99886 99883.3 99880.6 99877.8 99875 99872.1
          99869.2 99866.2 99863.2 99860 99856.6 99853.1 99849.4 99845.4 99841 99835.9 99829.9 99822.4
          99812.6 99799.2 99783.3 99805.6 99875.8 99892.3 99798.5 100000 99997.6 99995.1 99992.7 99990.2
          99987.8 99985.3 99982.9 99980.4 99978 99975.6 99973.1 99970.7 99968.2 99965.8 99963.3 99960.9
          99958.4 99956 99953.5 99951.1 99948.6 99946.2 99943.7 99941.3 99938.8 99936.4 99933.9 99931.4
          99929 99926.5 99924 99921.6 99919.1 99916.6 99914.1 99911.6 99909.1 99906.6 99904.1 99901.6
          99899.1 99896.5 99894 99891.4 99888.8 99886.2 99883.5 99880.8 99878.1 99875.4 99872.6 99869.7
          99866.8 99863.8 99860.7 99857.4 99854 99850.4 99846.4 99842 99836.8 99830.5 99822.4 99811.4
          99795.7 99777.9 99809.8 99861.4 99840.3 99815.9 100000 99997.6 99995.1 99992.7 99990.2 99987.8
          99985.3 99982.9 99980.4 99978 99975.6 99973.1 99970.7 99968.2 99965.8 99963.3 99960.9 99958.4
          99956 99953.5 99951.1 99948.6 99946.2 99943.7 99941.3 99938.8 99936.4 99933.9 99931.5 99929
          99926.5 99924.1 99921.6 99919.1 99916.7 99914.2 99911.7 99909.2 99906.7 99904.2 99901.7 99899.2
          99896.7 99894.1 99891.6 99889 99886.4 99883.8 99881.2 99878.5 99875.8 99873.1 99870.3 99867.4
          99864.5 99861.5 99858.4 99855.2 99851.8 99848 99843.9 99839.1 99833.4 99826.1 99816.4 99802.9
          99786.5 99806.6 99876.1 99892.4 99798.6 100000 99997.6 99995.1 99992.7 99990.2 99987.8 99985.3
          99982.9 99980.4 99978 99975.6 99973.1 99970.7 99968.2 99965.8 99963.3 99960.9 99958.4 99956
          99953.5 99951.1 99948.6 99946.2 99943.8 99941.3 99938.9 99936.4 99933.9 99931.5 99929 99926.6
          99924.1 99921.7 99919.2 99916.7 99914.2 99911.8 99909.3 99906.8 99904.3 99901.8 99899.3 99896.8
          99894.3 99891.8 99889.2 99886.7 99884.1 99881.5 99878.9 99876.3 99873.6 99870.9 99868.2 99865.4
          99862.6 99859.6 99856.6 99853.5 99850.2 99846.6 99842.7 99838.2 99833 99826.6 99818.6 99809.2
          99801.6 99816.1 99863.5 100000 100000 99997.6 99995.1 99992.7 99990.2 99987.8 99985.3 99982.9
          99980.5 99978 99975.6 99973.1 99970.7 99968.2 99965.8 99963.3 99960.9 99958.4 99956 99953.6
          99951.1 99948.7 99946.2 99943.8 99941.3 99938.9 99936.4 99934 99931.5 99929.1 99926.6 99924.2
          99921.7 99919.2 99916.8 99914.3 99911.9 99909.4 99906.9 99904.4 99902 99899.5 99897 99894.5
          99892 99889.5 99887 99884.4 99881.9 99879.4 99876.8 99874.2 99871.6 99869 99866.3 99863.7
          99861 99858.2 99855.5 99852.7 99849.8 99846.9 99844.1 99841.3 99838.9 99837.3 99838.1 99844.5
          99864.9 99916.6 100000 100000 99997.6 99995.1 99992.7 99990.2 99987.8 99985.3 99982.9 99980.5
          99978 99975.6 99973.1 99970.7 99968.2 99965.8 99963.3 99960.9 99958.5 99956 99953.6 99951.1
          99948.7 99946.2 99943.8 99941.3 99938.9 99936.4 99934 99931.5 99929.1 99926.6 99924.2 99921.7
          99919.3 99916.8 99914.4 99911.9 99909.5 99907 99904.6 99902.1 99899.6 99897.2 99894.7 99892.2
          99889.8 99887.3 99884.8 99882.3 99879.8 99877.3 99874.8 99872.3 99869.8 99867.3 99864.8 99862.4
          99859.9 99857.5 99855.2 99853 99851.2 99849.8 99849.3 99850.2 99853.7 99861.7 99877.1 99904.5
          99946.7 100000 100000 99997.6 99995.1 99992.7 99990.2 99987.8 99985.3 99982.9 99980.5 99978
          99975.6 99973.1 99970.7 99968.2 99965.8 99963.3 99960.9 99958.5 99956 99953.6 99951.1 99948.7
          99946.2 99943.8 99941.3 99938.9 99936.5 99934 99931.6 99929.1 99926.7 99924.2 99921.8 99919.3
          99916.9 99914.5 99912 99909.6 99907.1 99904.7 99902.2 99899.8 99897.3 99894.9 99892.5 99890
          99887.6 99885.1 99882.7 99880.3 99877.9 99875.5 99873 99870.7 99868.3 99866 99863.7 99861.5
          99859.4 99857.5 99855.9 99854.8 99854.5 99855.4 99858.4 99864.6 99875.8 99894.2 99921.5 99957.9
          100000 100000 99997.6 99995.1 99992.7 99990.2 99987.8 99985.3 99982.9 99980.5 99978 99975.6
          99973.1 99970.7 99968.2 99965.8 99963.4 99960.9 99958.5 99956 99953.6 99951.1 99948.7 99946.2
          99943.8 99941.4 99938.9 99936.5 99934 99931.6 99929.2 99926.7 99924.3 99921.8 99919.4 99917
          99914.5 99912.1 99909.7 99907.2 99904.8 99902.4 99899.9 99897.5 99895.1 99892.7 99890.3 99887.9
          99885.5 99883.1 99880.8 99878.4 99876.1 99873.8 99871.5 99869.2 99867 99864.9 99862.9 99861.1
          99859.5 99858.2 99857.5 99857.6 99858.9 99862.3 99868.9 99880.2 99898.3 99924.8 99959.7 100000
          100000 99997.6 99995.1 99992.7 99990.2 99987.8 99985.3 99982.9 99980.5 99978 99975.6 99973.1
          99970.7 99968.2 99965.8 99963.4 99960.9 99958.5 99956 99953.6 99951.1 99948.7 99946.3 99943.8
          99941.4 99938.9 99936.5 99934.1 99931.6 99929.2 99926.8 99924.3 99921.9 99919.5 99917 99914.6
          99912.2 99909.7 99907.3 99904.9 99902.5 99900.1 99897.7 99895.3 99892.9 99890.5 99888.2 99885.8
          99883.5 99881.2 99878.9 99876.6 99874.4 99872.2 99870.1 99868 99866 99864.2 99862.5 99861
          99859.8 99859.1 99859 99859.9 99862.2 99867 99875.5 99890.4 99915.3 99952.9 100000 100000
          99997.6 99995.1 99992.7 99990.2 99987.8 99985.3 99982.9 99980.5 99978 99975.6 99973.1 99970.7
          99968.2 99965.8 99963.4 99960.9 99958.5 99956 99953.6 99951.1 99948.7 99946.3 99943.8 99941.4
          99939 99936.5 99934.1 99931.6 99929.2 99926.8 99924.4 99921.9 99919.5 99917.1 99914.7 99912.2
          99909.8 99907.4 99905 99902.6 99900.2 99897.9 99895.5 99893.1 99890.8 99888.5 99886.2 99883.9
          99881.6 99879.4 99877.2 99875 99872.9 99870.9 99868.9 99867 99865.2 99863.6 99862.1 99860.8
          99859.8 99859.1 99858.9 99859.1 99860.2 99862.9 99869.6 99886.9 99930 100000 100000 99997.6
          99995.1 99992.7 99990.2 99987.8 99985.3 99982.9 99980.5 99978 99975.6 99973.1 99970.7 99968.2
          99965.8 99963.4 99960.9 99958.5 99956 99953.6 99951.2 99948.7 99946.3 99943.8 99941.4 99939
          99936.5 99934.1 99931.7 99929.2 99926.8 99924.4 99922 99919.5 99917.1 99914.7 99912.3 99909.9
          99907.5 99905.1 99902.7 99900.4 99898 99895.7 99893.3 99891 99888.7 99886.4 99884.2 99882
          99879.8 99877.6 99875.5 99873.5 99871.5 99869.6 99867.8 99866.1 99864.4 99862.9 99861.5 99860.1
          99858.8 99857.2 99855 99851.8 99847.2 99844 99864 99911.3 100000 100000 99997.6 99995.1
          99992.7 99990.2 99987.8 99985.3 99982.9 99980.5 99978 99975.6 99973.1 99970.7 99968.2 99965.8
          99963.4 99960.9 99958.5 99956 99953.6 99951.2 99948.7 99946.3 99943.9 99941.4 99939 99936.6
          99934.1 99931.7 99929.3 99926.8 99924.4 99922 99919.6 99917.2 99914.8 99912.4 99910 99907.6
          99905.2 99902.8 99900.5 99898.1 99895.8 99893.5 99891.2 99888.9 99886.7 99884.5 99882.3 99880.2
          99878.1 99876 99874 99872.1 99870.2 99868.5 99866.8 99865.2 99863.6 99862.1 99860.5 99858.6
          99856.1 99852.3 99846.2 99838.8 99867.1 99941.6 99953.5 99870.9 100000 99997.6 99995.1 99992.7
          99990.2 99987.8 99985.3 99982.9 99980.5 99978 99975.6 99973.1 99970.7 99968.2 99965.8 99963.4
          99960.9 99958.5 99956 99953.6 99951.2 99948.7 99946.3 99943.9 99941.4 99939 99936.6 99934.1
          99931.7 99929.3 99926.9 99924.4 99922 99919.6 99917.2 99914.8 99912.4 99910 99907.7 99905.3
          99902.9 99900.6 99898.3 99895.9 99893.7 99891.4 99889.1 99886.9 99884.7 99882.6 99880.5 99878.4
          99876.4 99874.5 99872.6 99870.8 99869 99867.4 99865.8 99864.3 99862.7 99861.1 99859.2 99856.6
          99852.7 99846.4 99838.9 99867.2 99941.7 99953.5 99870.9 100000 99997.6 99995.1 99992.7 99990.2
          99987.8 99985.3 99982.9 99980.5 99978 99975.6 99973.1 99970.7 99968.2 99965.8 99963.4 99960.9
          99958.5 99956.1 99953.6 99951.2 99948.7 99946.3 99943.9 99941.4 99939 99936.6 99934.1 99931.7
          99929.3 99926.9 99924.5 99922.1 99919.6 99917.2 99914.9 99912.5 99910.1 99907.7 99905.4 99903
          99900.7 99898.4 99896 99893.8 99891.5 99889.3 99887.1 99884.9 99882.8 99880.7 99878.7 99876.7
          99874.8 99872.9 99871.2 99869.5 99867.9 99866.3 99864.9 99863.5 99862 99860.5 99858.7 99856.2
          99852.7 99847.7 99844.2 99864 99911.3 100000 100000 99997.6 99995.1 99992.7 99990.2 99987.8
          99985.3 99982.9 99980.5 99978 99975.6 99973.1 99970.7 99968.3 99965.8 99963.4 99960.9 99958.5
          99956.1 99953.6 99951.2 99948.7 99946.3 99943.9 99941.4 99939 99936.6 99934.2 99931.7 99929.3
          99926.9 99924.5 99922.1 99919.7 99917.3 99914.9 99912.5 99910.1 99907.8 99905.4 99903.1 99900.7
          99898.4 99896.1 99893.9 99891.6 99889.4 99887.2 99885.1 99883 99880.9 99878.9 99876.9 99875
          99873.2 99871.5 99869.8 99868.2 99866.8 99865.4 99864.2 99863.1 99862.2 99861.5 99861.2 99861.6
          99863.6 99869.8 99886.7 99929.8 100000 100000 99997.6 99995.1 99992.7 99990.2 99987.8 99985.3
          99982.9 99980.5 99978 99975.6 99973.1 99970.7 99968.3 99965.8 99963.4 99960.9 99958.5 99956.1
          99953.6 99951.2 99948.8 99946.3 99943.9 99941.4 99939 99936.6 99934.2 99931.7 99929.3 99926.9
          99924.5 99922.1 99919.7 99917.3 99914.9 99912.5 99910.1 99907.8 99905.4 99903.1 99900.8 99898.5
          99896.2 99893.9 99891.7 99889.5 99887.3 99885.1 99883 99881 99879 99877.1 99875.2 99873.4
          99871.7 99870 99868.5 99867.1 99865.8 99864.8 99864 99863.6 99863.9 99865.4 99869 99876.3
          99890.1 99914.5 99952.2 100000 100000 99997.6 99995.1 99992.7 99990.2 99987.8 99985.3 99982.9
          99980.5 99978 99975.6 99973.1 99970.7 99968.3 99965.8 99963.4 99960.9 99958.5 99956.1 99953.6
          99951.2 99948.8 99946.3 99943.9 99941.4 99939 99936.6 99934.2 99931.7 99929.3 99926.9 99924.5
          99922.1 99919.7 99917.3 99914.9 99912.5 99910.1 99907.8 99905.4 99903.1 99900.8 99898.5 99896.2
          99893.9 99891.7 99889.5 99887.3 99885.2 99883.1 99881 99879 99877.1 99875.2 99873.4 99871.7
          99870.1 99868.6 99867.2 99866 99865 99864.3 99864.1 99864.8 99867 99871.8 99880.8 99896.8
          99922.3 99957.8 100000
        </DataArray>
        <DataArray type="Float32" Name="pressure_nonwetting" NumberOfComponents="1" format="ascii">
          100958 100958 100955 100955 100953 100953 100950 100950 100948 100948 100946 100946
          100943 100943 100941 100941 100938 100938 100936 100936 100933 100933 100931 100931
          100928 100928 100926 100926 100923 100923 100921 100921 100919 100919 100916 100916
          100914 100914 100911 100911 100909 100909 100906 100906 100904 100904 100901 100901
          100899 100899 100897 100897 100894 100894 100892 100892 100889 100889 100887 100887
          100884 100884 100882 100882 100879 100879 100877 100877 100874 100874 100872 100872
          100869 100869 100867 100867 100864 100864 100862 100862 100859 100859 100856 100857
          100854 100854 100851 100851 100849 100849 100846 100846 100843 100843 100841 100841
          100838 100838 100835 100835 100832 100832 100829 100829 100826 100826 100823 100823
          100820 100820 100817 100817 100813 100813 100810 100810 100806 100806 100803 100803
          100799 100799 100796 100796 100794 100793 100792 100791 100793 100791 100797 100793
          100808 100802 100828 100819 100860 100850 100905 100898 100958 100958 100958 100955
          100953 100950 100948 100946 100943 100941 100938 100936 100933 100931 100928 100926
          100923 100921 100919 100916 100914 100911 100909 100906 100904 100901 100899 100897
          100894 100892 100889 100887 100884 100882 100879 100877 100874 100872 100869 100867
          100864 100862 100859 100857 100854 100851 100849 100846 100843 100841 100838 100835
          100832 100829 100826 100823 100820 100817 100813 100810 100806 100803 100799 100795
          100791 100787 100784 100783 100784 100792 100814 100869 100958 100958 100955 100953
          100950 100948 100946 100943 100941 100938 100936 100933 100931 100928 100926 100923
          100921 100919 100916 100914 100911 100909 100906 100904 100901 100899 100897 100894
          100892 100889 100887 100884 100882 100879 100877 100874 100872 100869 100867 100864
          100862 100859 100857 100854 100851 100849 100846 100844 100841 100838 100835 100832
          100830 100827 100824 100820 100817 100814 100810 100807 100803 100798 100794 100789
          100783 100776 100768 100759 100748 100740 100757 100958 100958 100955 100953 100950
          100948 100946 100943 100941 100938 100936 100933 100931 100928 100926 100923 100921
          100919 100916 100914 100911 100909 100906 100904 100901 100899 100897 100894 100892
          100889 100887 100884 100882 100879 100877 100874 100872 100869 100867 100864 100862
          100859 100857 100854 100852 100849 100846 100844 100841 100838 100836 100833 100830
          100827 100824 100821 100818 100814 100811 100807 100803 100799 100794 100788 100780
          100770 100757 100736 100704 100651 100550 100254 100958 100955 100953 100950 100948
          100946 100943 100941 100938 100936 100933 100931 100928 100926 100924 100921 100919
          100916 100914 100911 100909 100906 100904 100901 100899 100897 100894 100892 100889
          100887 100884 100882 100879 100877 100874 100872 100869 100867 100864 100862 100859
          100857 100854 100852 100849 100847 100844 100841 100839 100836 100833 100830 100827
          100825 100822 100818 100815 100812 100808 100804 100800 100795 100788 100780 100769
          100753 100728 100686 100610 100459 100208 100958 100955 100953 100950 100948 100946
          100943 100941 100938 100936 100933 100931 100928 100926 100924 100921 100919 100916
          100914 100911 100909 100906 100904 100901 100899 100897 100894 100892 100889 100887
          100884 100882 100879 100877 100874 100872 100869 100867 100864 100862 100859 100857
          100854 100852 100849 100847 100844 100842 100839 100836 100834 100831 100828 100825
          100822 100819 100816 100813 100809 100806 100802 100797 100791 100784 100774 100760
          100740 100707 100653 100552 100255 100958 100955 100953 100950 100948 100946 100943
          100941 100938 100936 100933 100931 100928 100926 100924 100921 100919 100916 100914
          100911 100909 100906 100904 100901 100899 100897 100894 100892 100889 100887 100884
          100882 100879 100877 100874 100872 100870 100867 100865 100862 100860 100857 100855
          100852 100850 100847 100844 100842 100839 100837 100834 100831 100829 100826 100823
          100820 100817 100814 100811 100808 100804 100800 100796 100791 100784 100776 100766
          100754 100745 100760 100958 100958 100955 100953 100950 100948 100946 100943 100941
          100938 100936 100933 100931 100928 100926 100924 100921 100919 100916 100914 100911
          100909 100906 100904 100901 100899 100897 100894 100892 100889 100887 100884 100882
          100879 100877 100875 100872 100870 100867 100865 100862 100860 100857 100855 100852
          100850 100847 100845 100842 100840 100837 100835 100832 100829 100827 100824 100821
          100819 100816 100813 100810 100808 100805 100802 100799 100797 100795 100796 100802
          100822 100873 100958 100958 100955 100953 100950 100948 100946 100943 100941 100938
          100936 100933 100931 100928 100926 100924 100921 100919 100916 100914 100911 100909
          100906 100904 100902 100899 100897 100894 100892 100889 100887 100884 100882 100879
          100877 100875 100872 100870 100867 100865 100862 100860 100857 100855 100852 100850
          100847 100845 100843 100840 100838 100835 100833 100830 100828 100825 100823 100820
          100818 100815 100813 100811 100809 100808 100807 100808 100811 100819 100835 100862
          100904 100958 100958 100955 100953 100950 100948 100946 100943 100941 100938 100936
          100933 100931 100928 100926 100924 100921 100919 100916 100914 100911 100909 100906
          100904 100902 100899 100897 100894 100892 100889 100887 100884 100882 100880 100877
          100875 100872 100870 100867 100865 100862 100860 100858 100855 100853 100850 100848
          100845 100843 100840 100838 100836 100833 100831 100828 100826 100824 100821 100819
          100817 100815 100814 100813 100812 100813 100816 100822 100834 100852 100879 100916
          100958 100958 100955 100953 100950 100948 100946 100943 100941 100938 100936 100933
          100931 100928 100926 100924 100921 100919 100916 100914 100911 100909 100906 100904
          100902 100899 100897 100894 100892 100889 100887 100884 100882 100880 100877 100875
          100872 100870 100867 100865 100863 100860 100858 100855 100853 100850 100848 100846
          100843 100841 100838 100836 100834 100831 100829 100827 100825 100823 100821 100819
          100817 100816 100815 100815 100817 100820 100827 100838 100856 100883 100917 100958
          100958 100955 100953 100950 100948 100946 100943 100941 100938 100936 100933 100931
          100928 100926 100924 100921 100919 100916 100914 100911 100909 100906 100904 100902
          100899 100897 100894 100892 100889 100887 100884 100882 100880 100877 100875 100872
          100870 100867 100865 100863 100860 100858 100855 100853 100851 100848 100846 100844
          100841 100839 100837 100834 100832 100830 100828 100826 100824 100822 100820 100819
          100818 100817 100817 100818 100820 100825 100833 100848 100873 100911 100958 100958
          100955 100953 100950 100948 100946 100943 100941 100938 100936 100933 100931 100928
          100926 100924 100921 100919 100916 100914 100911 100909 100906 100904 100902 100899
          100897 100894 100892 100889 100887 100885 100882 100880 100877 100875 100872 100870
          100868 100865 100863 100860 100858 100856 100853 100851 100849 100846 100844 100842
          100839 100837 100835 100833 100831 100829 100827 100825 100823 100821 100820 100819
          100818 100817 100817 100817 100818 100821 100827 100843 100886 100958 100958 100955
          100953 100950 100948 100946 100943 100941 100938 100936 100933 100931 100928 100926
          100924 100921 100919 100916 100914 100911 100909 100906 100904 100902 100899 100897
          100894 100892 100889 100887 100885 100882 100880 100877 100875 100872 100870 100868
          100865 100863 100860 100858 100856 100853 100851 100849 100846 100844 100842 100840
          100838 100835 100833 100831 100829 100827 100826 100824 100822 100821 100819 100818
          100816 100815 100813 100809 100804 100796 100785 100789 100958 100958 100955 100953
          100950 100948 100946 100943 100941 100938 100936 100933 100931 100928 100926 100924
          100921 100919 100916 100914 100911 100909 100906 100904 100902 100899 100897 100894
          100892 100889 100887 100885 100882 100880 100877 100875 100872 100870 100868 100865
          100863 100861 100858 100856 100854 100851 100849 100847 100844 100842 100840 100838
          100836 100834 100832 100830 100828 100826 100824 100823 100821 100820 100818 100816
          100814 100810 100804 100792 100770 100725 100618 100296 100958 100955 100953 100950
          100948 100946 100943 100941 100938 100936 100933 100931 100928 100926 100924 100921
          100919 100916 100914 100911 100909 100906 100904 100902 100899 100897 100894 100892
          100889 100887 100885 100882 100880 100877 100875 100873 100870 100868 100865 100863
          100861 100858 100856 100854 100851 100849 100847 100845 100842 100840 100838 100836
          100834 100832 100830 100828 100827 100825 100824 100822 100820 100819 100817 100814
          100810 100804 100792 100770 100725 100618 100296 100958 100955 100953 100950 100948
          100946 100943 100941 100938 100936 100933 100931 100928 100926 100924 100921 100919
          100916 100914 100911 100909 100906 100904 100902 100899 100897 100894 100892 100889
          100887 100885 100882 100880 100877 100875 100873 100870 100868 100865 100863 100861
          100858 100856 100854 100852 100849 100847 100845 100843 100841 100838 100836 100834
          100833 100831 100829 100827 100826 100824 100823 100821 100820 100818 100816 100814
          100810 100805 100796 100785 100789 100958 100958 100955 100953 100950 100948 100946
          100943 100941 100938 100936 100933 100931 100928 100926 100924 100921 100919 100916
          100914 100911 100909 100906 100904 100902 100899 100897 100894 100892 100889 100887
          100885 100882 100880 100877 100875 100873 100870 100868 100865 100863 100861 100858
          100856 100854 100852 100849 100847 100845 100843 100841 100839 100837 100835 100833
          100831 100829 100828 100826 100825 100823 100822 100821 100820 100819 100819 100819
          100821 100827 100843 100886 100958 100958 100955 100953 100950 100948 100946 100943
          100941 100938 100936 100933 100931 100928 100926 100924 100921 100919 100916 100914
          100911 100909 100906 100904 100902 100899 100897 100894 100892 100889 100887 100885
          100882 100880 100877 100875 100873 100870 100868 100866 100863 100861 100858 100856
          100854 100852 100849 100847 100845 100843 100841 100839 100837 100835 100833 100831
          100829 100828 100826 100825 100824 100822 100822 100821 100822 100823 100827 100834
          100848 100872 100910 100958 100958 100955 100953 100950 100948 100946 100943 100941
          100938 100936 100933 100931 100928 100926 100924 100921 100919 100916 100914 100911
          100909 100906 100904 100902 100899 100897 100894 100892 100889 100887 100885 100882
          100880 100877 100875 100873 100870 100868 100866 100863 100861 100858 100856 100854
          100852 100849 100847 100845 100843 100841 100839 100837 100835 100833 100831 100829
          100828 100826 100825 100824 100823 100822 100822 100823 100825 100829 100839 100855
          100880 100915 100958
        </DataArray>
        <DataArray type="Float32" Name="density_wetting" NumberOfComponents="1" format="ascii">
          1000 1000 1000 1000 1000 1000 1000 1000 1000 1000 1000 1000
          1000 1000 1000 1000 1000 1000 1000 1000 1000 1000 1000 1000
          1000 1000 1000 1000 1000 1000 1000 1000 1000 1000 1000 1000
          1000 1000 1000 1000 1000 1000 1000 1000 1000 1000 1000 1000
          1000 1000 1000 1000 1000 1000 1000 1000 1000 1000 1000 1000
          1000 1000 1000 1000 1000 1000 1000 1000 1000 1000 1000 1000
          1000 1000 1000 1000 1000 1000 1000 1000 1000 1000 1000 1000
          1000 1000 1000 1000 1000 1000 1000 1000 1000 1000 1000 1000
          1000 1000 1000 1000 1000 1000 1000 1000 1000 1000 1000 1000
          1000 1000 1000 1000 1000 1000 1000 1000 1000 1000 1000 1000
          1000 1000 1000 1000 1000 1000 1000 1000 1000 1000 1000 1000
          1000 1000 1000 1000 1000 1000 1000 1000 1000 1000 1000 1000
          1000 1000 1000 1000 1000 1000 1000 1000 1000 1000 1000 1000
          1000 1000 1000 1000 1000 1000 1000 1000 1000 1000 1000 1000
          1000 1000 1000 1000 1000 1000 1000 1000 1000 1000 1000 1000
          1000 1000 1000 1000 1000 1000 1000 1000 1000 1000 1000 1000
          1000 1000 1000 1000 1000 1000 1000 1000 1000 1000 1000 1000
          1000 1000 1000 1000 1000 1000 1000 1000 1000 1000 1000 1000
          1000 1000 1000 1000 1000 1000 1000 1000 1000 1000 1000 1000
          1000 1000 1000 1000 1000 1000 1000 1000 1000 1000 1000 1000
          1000 1000 1000 1000 1000 1000 1000 1000 1000 1000 1000 1000
          1000 1000 1000 1000 1000 1000 1000 1000 1000 1000 1000 1000
          1000 1000 1000 1000 1000 1000 1000 1000 1000 1000 1000 1000
          1000 1000 1000 1000 1000 1000 1000 1000 1000 1000 1000 1000
          1000 1000 1000 1000 1000 1000 1000 1000 1000 1000 1000 1000
          1000 1000 1000 1000 1000 1000 1000 1000 1000 1000 1000 1000
          1000 1000 1000 1000 1000 1000 1000 1000 1000 1000 1000 1000
          1000 1000 1000 1000 1000 1000 1000 1000 1000 1000 1000 1000
          1000 1000 1000 1000 1000 1000 1000 1000 1000 1000 1000 1000
          1000 1000 1000 1000 1000 1000 1000 1000 1000 1000 1000 1000
          1000 1000 1000 1000 1000 1000 1000 1000 1000 1000 1000 1000
          1000 1000 1000 1000 1000 1000 1000 1000 1000 1000 1000 1000
          1000 1000 1000 1000 1000 1000 1000 1000 1000 1000 1000 1000
          1000 1000 1000 1000 1000 1000 1000 1000 1000 1000 1000 1000
          1000 1000 1000 1000 1000 1000 1000 1000 1000 1000 1000 1000
          1000 1000 1000 1000 1000 1000 1000 1000 1000 1000 1000 1000
          1000 1000 1000 1000 1000 1000 1000 1000 1000 1000 1000 1000
          1000 1000 1000 1000 1000 1000 1000 1000 1000 1000 1000 1000
          1000 1000 1000 1000 1000 1000 1000 1000 1000 1000 1000 1000
          1000 1000 1000 1000 1000 1000 1000 1000 1000 1000 1000 1000
          1000 1000 1000 1000 1000 1000 1000 1000 1000 1000 1000 1000
          1000 1000 1000 1000 1000 1000 1000 1000 1000 1000 1000 1000
          1000 1000 1000 1000 1000 1000 1000 1000 1000 1000 1000 1000
          1000 1000 1000 1000 1000 1000 1000 1000 1000 1000 1000 1000
          1000 1000 1000 1000 1000 1000 1000 1000 1000 1000 1000 1000
          1000 1000 1000 1000 1000 1000 1000 1000 1000 1000 1000 1000
          1000 1000 1000 1000 1000 1000 1000 1000 1000 1000 1000 1000
          1000 1000 1000 1000 1000 1000 1000 1000 1000 1000 1000 1000
          1000 1000 1000 1000 1000 1000 1000 1000 1000 1000 1000 1000
          1000 1000 1000 1000 1000 1000 1000 1000 1000 1000 1000 1000
          1000 1000 1000 1000 1000 1000 1000 1000 1000 1000 1000 1000
          1000 1000 1000 1000 1000 1000 1000 1000 1000 1000 1000 1000
          1000 1000 1000 1000 1000 1000 1000 1000 1000 1000 1000 1000
          1000 1000 1000 1000 1000 1000 1000 1000 1000 1000 1000 1000
          1000 1000 1000 1000 1000 1000 1000 1000 1000 1000 1000 1000
          1000 1000 1000 1000 1000 1000 1000 1000 1000 1000 1000 1000
          1000 1000 1000 1000 1000 1000 1000 1000 1000 1000 1000 1000
          1000 1000 1000 1000 1000 1000 1000 1000 1000 1000 1000 1000
          1000 1000 1000 1000 1000 1000 1000 1000 1000 1000 1000 1000
          1000 1000 1000 1000 1000 1000 1000 1000 1000 1000 1000 1000
          1000 1000 1000 1000 1000 1000 1000 1000 1000 1000 1000 1000
          1000 1000 1000 1000 1000 1000 1000 1000 1000 1000 1000 1000
          1000 1000 1000 1000 1000 1000 1000 1000 1000 1000 1000 1000
          1000 1000 1000 1000 1000 1000 1000 1000 1000 1000 1000 1000
          1000 1000 1000 1000 1000 1000 1000 1000 1000 1000 1000 1000
          1000 1000 1000 1000 1000 1000 1000 1000 1000 1000 1000 1000
          1000 1000 1000 1000 1000 1000 1000 1000 1000 1000 1000 1000
          1000 1000 1000 1000 1000 1000 1000 1000 1000 1000 1000 1000
          1000 1000 1000 1000 1000 1000 1000 1000 1000 1000 1000 1000
          1000 1000 1000 1000 1000 1000 1000 1000 1000 1000 1000 1000