<?xml version="1.0"?>
<VTKFile type="UnstructuredGrid" version="0.1" byte_order="LittleEndian">
  <UnstructuredGrid>
    <Piece NumberOfCells="1400" NumberOfPoints="1491">
      <PointData Scalars="pressure_w">
        <DataArray type="Float32" Name="pressure_w" NumberOfComponents="1" format="ascii">
          100000 100000 100000 100000 100000 100000 100000 100000 100000 100000 100000 100000
          100000 100000 100000 100000 100000 100000 100000 100000 100000 100000 100000 100000
          100000 100000 100000 100000 100000 100000 100000 100000 100000 100000 100000 100000
          100000 100000 100000 100000 100000 100000 99999.9 99999.9 99999.9 99999.9 99999.9 99999.9
          99999.9 99999.9 99999.9 99999.9 99999.9 99999.9 99999.9 99999.9 99999.9 99999.9 99999.9 99999.9
          99999.9 99999.9 99999.9 99999.9 99999.9 99999.9 99999.9 99999.9 99999.9 99999.9 99999.9 99999.9
          99999.9 99999.9 99999.9 99999.9 99999.9 99999.9 99999.9 99999.9 99999.9 99999.9 99999.9 99999.9
          99999.9 99999.9 99999.9 99999.9 99999.9 99999.9 99999.9 99999.9 99999.9 99999.9 99999.9 99999.9
          99999.9 99999.9 99999.9 99999.9 99999.9 99999.9 99999.9 99999.9 99999.9 99999.8 99999.8 99999.8
          99999.8 99999.8 99999.8 99999.8 99999.8 99999.8 99999.8 99999.8 99999.8 99999.8 99999.8 99999.8
          99999.8 99999.8 99999.8 99999.8 99999.8 99999.8 99999.8 99999.8 99999.8 99999.8 99999.8 99999.8
          99999.8 99999.8 99999.8 99999.8 99999.8 99999.8 99999.8 99999.8 99999.8 99999.8 99999.8 99999.8
          99999.8 99999.8 99999.8 99999.7 99999.7 99999.7 99999.7 99999.7 99999.7 99999.7 99999.7 99999.7
          99999.7 99999.7 99999.7 99999.7 99999.7 99999.7 99999.7 99999.7 99999.7 99999.7 99999.7 99999.7
          99999.7 99999.7 99999.7 99999.7 99999.7 99999.7 99999.7 99999.7 99999.7 99999.7 99999.7 99999.7
          99999.7 99999.7 99999.7 99999.7 99999.7 99999.7 99999.7 99999.7 99999.7 99999.7 99999.7 99999.7
          99999.7 99999.7 99999.7 99999.7 99999.7 99999.7 99999.7 99999.7 99999.7 99999.7 99999.7 99999.7
          99999.7 99999.7 99999.7 99999.7 99999.7 99999.7 99999.6 99999.6 99999.6 99999.6 99999.6 99999.6
          99999.6 99999.6 99999.6 99999.6 99999.6 99999.6 99999.6 99999.6 99999.6 99999.6 99999.6 99999.6
          99999.6 99999.6 99999.6 99999.6 99999.6 99999.6 99999.6 99999.6 99999.6 99999.6 99999.6 99999.6
          99999.6 99999.6 99999.6 99999.6 99999.6 99999.6 99999.6 99999.6 99999.6 99999.6 99999.6 99999.6
          99999.5 99999.5 99999.5 99999.5 99999.5 99999.5 99999.5 99999.5 99999.5 99999.5 99999.5 99999.5
          99999.5 99999.5 99999.5 99999.5 99999.5 99999.5 99999.5 99999.5 99999.5 99999.5 99999.5 99999.5
          99999.5 99999.5 99999.5 99999.5 99999.5 99999.5 99999.5 99999.5 99999.5 99999.5 99999.5 99999.5
          99999.5 99999.5 99999.5 99999.5 99999.5 99999.5 99999.5 99999.5 99999.5 99999.5 99999.5 99999.5
          99999.5 99999.5 99999.5 99999.5 99999.5 99999.5 99999.5 99999.5 99999.5 99999.5 99999.5 99999.5
          99999.5 99999.5 99999.5 99999.4 99999.4 99999.4 99999.4 99999.4 99999.4 99999.4 99999.4 99999.4
          99999.4 99999.4 99999.4 99999.4 99999.4 99999.4 99999.4 99999.4 99999.4 99999.4 99999.4 99999.4
          99999.4 99999.4 99999.4 99999.4 99999.4 99999.4 99999.4 99999.4 99999.4 99999.4 99999.4 99999.4
          99999.4 99999.4 99999.4 99999.4 99999.4 99999.4 99999.4 99999.4 99999.4 99999.4 99999.4 99999.4
          99999.4 99999.4 99999.4 99999.4 99999.4 99999.4 99999.4 99999.4 99999.4 99999.4 99999.4 99999.4
          99999.4 99999.4 99999.4 99999.4 99999.4 99999.4 99999.3 99999.3 99999.3 99999.3 99999.3 99999.3
          99999.3 99999.3 99999.3 99999.3 99999.3 99999.3 99999.3 99999.3 99999.3 99999.3 99999.3 99999.3
          99999.3 99999.3 99999.3 99999.3 99999.3 99999.3 99999.3 99999.3 99999.3 99999.3 99999.3 99999.3
          99999.3 99999.3 99999.3 99999.3 99999.3 99999.3 99999.3 99999.3 99999.3 99999.3 99999.3 99999.3
          99999.2 99999.2 99999.2 99999.2 99999.2 99999.2 99999.2 99999.2 99999.2 99999.2 99999.2 99999.2
          99999.2 99999.2 99999.2 99999.2 99999.2 99999.2 99999.2 99999.2 99999.2 99999.2 99999.2 99999.2
          99999.2 99999.2 99999.2 99999.2 99999.2 99999.2 99999.2 99999.2 99999.2 99999.2 99999.2 99999.2
          99999.2 99999.2 99999.2 99999.2 99999.2 99999.2 99999.2 99999.2 99999.2 99999.2 99999.2 99999.2
          99999.2 99999.2 99999.2 99999.2 99999.2 99999.2 99999.2 99999.2 99999.2 99999.2 99999.2 99999.2
          99999.2 99999.2 99999.2 99999.1 99999.1 99999.1 99999.1 99999.1 99999.1 99999.1 99999.1 99999.1
          99999.1 99999.1 99999.1 99999.1 99999.1 99999.1 99999.1 99999.1 99999.1 99999.1 99999.1 99999.1
          99999.1 99999.1 99999.1 99999.1 99999.1 99999.1 99999.1 99999.1 99999.1 99999.1 99999.1 99999.1
          99999.1 99999.1 99999.1 99999.1 99999.1 99999.1 99999.1 99999.1 99999.1 99999.1 99999.1 99999.1
          99999.1 99999.1 99999.1 99999.1 99999.1 99999.1 99999.1 99999.1 99999.1 99999.1 99999.1 99999.1
          99999.1 99999.1 99999.1 99999.1 99999.1 99999.1 99999 99999 99999 99999 99999 99999
          99999 99999 99999 99999 99999 99999 99999 99999 99999 99999 99999 99999
          99999 99999 99999 99999 99999 99999 99999 99999 99999 99999 99999 99999
          99999 99999 99999 99999 99999 99999 99999 99999 99999 99999 99999 99999
          99998.9 99998.9 99998.9 99998.9 99998.9 99998.9 99998.9 99998.9 99998.9 99998.9 99998.9 99998.9
          99998.9 99998.9 99998.9 99998.9 99998.9 99998.9 99998.9 99998.9 99998.9 99998.9 99998.9 99998.9
          99998.9 99998.9 99998.9 99998.9 99998.9 99998.9 99998.9 99998.9 99998.9 99998.9 99998.9 99998.9
          99998.9 99998.9 99998.9 99998.9 99998.9 99998.9 99998.9 99998.9 99998.9 99998.9 99998.9 99998.9
          99998.9 99998.9 99998.9 99998.9 99998.9 99998.9 99998.9 99998.9 99998.9 99998.9 99998.9 99998.9
          99998.9 99998.9 99998.9 99998.8 99998.8 99998.8 99998.8 99998.8 99998.8 99998.8 99998.8 99998.8
          99998.8 99998.8 99998.8 99998.8 99998.8 99998.8 99998.8 99998.8 99998.8 99998.8 99998.8 99998.8
          99998.8 99998.8 99998.8 99998.8 99998.8 99998.8 99998.8 99998.8 99998.8 99998.8 99998.8 99998.8
          99998.8 99998.8 99998.8 99998.8 99998.8 99998.8 99998.8 99998.8 99998.8 99998.8 99998.8 99998.8
          99998.8 99998.8 99998.8 99998.8 99998.8 99998.8 99998.8 99998.8 99998.8 99998.8 99998.8 99998.8
          99998.8 99998.8 99998.8 99998.8 99998.8 99998.8 99998.7 99998.7 99998.7 99998.7 99998.7 99998.7
          99998.7 99998.7 99998.7 99998.7 99998.7 99998.7 99998.7 99998.7 99998.7 99998.7 99998.7 99998.7
          99998.7 99998.7 99998.7 99998.7 99998.7 99998.7 99998.7 99998.7 99998.7 99998.7 99998.7 99998.7
          99998.7 99998.7 99998.7 99998.7 99998.7 99998.7 99998.7 99998.7 99998.7 99998.7 99998.7 99998.7
          99998.6 99998.6 99998.6 99998.6 99998.6 99998.6 99998.6 99998.6 99998.6 99998.6 99998.6 99998.6
          99998.6 99998.6 99998.6 99998.6 99998.6 99998.6 99998.6 99998.6 99998.6 99998.6 99998.6 99998.6
          99998.6 99998.6 99998.6 99998.6 99998.6 99998.6 99998.6 99998.6 99998.6 99998.6 99998.6 99998.6
          99998.6 99998.6 99998.6 99998.6 99998.6 99998.6 99998.6 99998.6 99998.6 99998.6 99998.6 99998.6
          99998.6 99998.6 99998.6 99998.6 99998.6 99998.6 99998.6 99998.6 99998.6 99998.6 99998.6 99998.6
          99998.6 99998.6 99998.6 99998.5 99998.5 99998.5 99998.5 99998.5 99998.5 99998.5 99998.5 99998.5
          99998.5 99998.5 99998.5 99998.5 99998.5 99998.5 99998.5 99998.5 99998.5 99998.5 99998.5 99998.5
          99998.5 99998.5 99998.5 99998.5 99998.5 99998.5 99998.5 99998.5 99998.5 99998.5 99998.5 99998.5
          99998.5 99998.5 99998.5 99998.5 99998.5 99998.5 99998.5 99998.5 99998.5 99998.5 99998.5 99998.5
          99998.5 99998.5 99998.5 99998.5 99998.5 99998.5 99998.5 99998.5 99998.4 99998.4 99998.4 99998.4
          99998.4 99998.4 99998.4 99998.4 99998.4 99998.4 99998.4 99998.4 99998.4 99998.4 99998.4 99998.4
          99998.4 99998.4 99998.4 99998.4 99998.4 99998.4 99998.4 99998.4 99998.4 99998.4 99998.4 99998.4
          99998.4 99998.4 99998.4 99998.4 99998.4 99998.4 99998.4 99998.4 99998.4 99998.4 99998.4 99998.4
          99998.4 99998.4 99998.4 99998.4 99998.4 99998.4 99998.4 99998.4 99998.4 99998.4 99998.4 99998.4
          99998.3 99998.3 99998.3 99998.3 99998.3 99998.3 99998.3 99998.3 99998.3 99998.3 99998.3 99998.3
          99998.3 99998.3 99998.3 99998.3 99998.3 99998.3 99998.3 99998.3 99998.3 99998.3 99998.3 99998.3
          99998.3 99998.3 99998.3 99998.3 99998.3 99998.3 99998.3 99998.3 99998.3 99998.3 99998.3 99998.3
          99998.3 99998.3 99998.3 99998.3 99998.3 99998.3 99998.3 99998.3 99998.3 99998.3 99998.3 99998.3
          99998.3 99998.3 99998.3 99998.3 99998.3 99998.3 99998.3 99998.3 99998.2 99998.2 99998.2 99998.2
          99998.2 99998.2 99998.2 99998.2 99998.2 99998.2 99998.2 99998.2 99998.2 99998.2 99998.2 99998.2
          99998.2 99998.2 99998.2 99998.2 99998.2 99998.2 99998.2 99998.2 99998.2 99998.2 99998.2 99998.2
          99998.2 99998.2 99998.2 99998.2 99998.2 99998.2 99998.2 99998.2 99998.2 99998.2 99998.2 99998.2
          99998.2 99998.2 99998.2 99998.2 99998.2 99998.2 99998.2 99998.2 99998.2 99998.2 99998.2 99998.2
          99998.2 99998.2 99998.2 99998.2 99998.2 99998.2 99998.1 99998.1 99998.1 99998.1 99998.1 99998.1
          99998.1 99998.1 99998.1 99998.1 99998.1 99998.1 99998.1 99998.1 99998.1 99998.1 99998.1 99998.1
          99998.1 99998.1 99998.1 99998.1 99998.1 99998.1 99998.1 99998.1 99998.1 99998.1 99998.1 99998.1
          99998.1 99998.1 99998.1 99998.1 99998.1 99998.1 99998.1 99998.1 99998.1 99998.1 99998.1 99998.1
          99998.1 99998.1 99998.1 99998.1 99998.1 99998.1 99998.1 99998.1 99998 99998 99998 99998
          99998.1 99998.1 99998.1 99998.1 99998.1 99998.1 99998 99998 99998 99998 99998 99998
          99998 99998 99998 99998 99998 99998 99998 99998 99998 99998 99998 99998
          99998 99998 99998 99998 99998 99998 99998 99998 99998 99998 99998 99998
          99998 99998 99998 99998 99998 99998 99998 99998 99998 99998 99998 99998
          99998 99998 99998 99998 99998 99998 99997.9 99997.9 99997.9 99997.9 99997.9 99997.9
          99997.9 99997.9 99997.9 99998 99998 99998 99998 99998 99997.9 99997.9 99997.9 99997.9
          99997.9 99997.9 99997.9 99997.9 99997.9 99997.9 99997.9 99997.9 99997.9 99997.9 99997.9 99997.9
          99997.9 99997.9 99997.9 99997.9 99997.9 99997.9 99997.9 99997.9 99997.9 99997.9 99997.9 99997.9
          99997.9 99997.9 99997.9 99997.9 99997.9 99997.8 99997.8 99997.8 99997.8 99997.9 99997.9 99997.9
          99997.9 99997.9 99997.9 99997.9 99997.9 99997.9 99997.9 99997.9 99997.8 99997.8 99997.8 99997.8
          99997.8 99997.8 99997.8 99997.8 99997.8 99997.8 99997.9 99997.9 99997.9 99997.9 99997.9 99997.9
          99997.9 99997.9 99997.9 99997.8 99997.8 99997.8 99997.8 99997.8 99997.8 99997.8 99997.8 99997.8
          99997.8 99997.8 99997.8 99997.9 99997.9 99997.9 99997.9 99998 99998 99998 99998 99997.9
          99997.8 99997.8 99997.8 99997.8 99997.8 99997.9 99997.9 99997.9 99997.9 99997.8 99997.8 99997.7
          99997.9 99997.9 99998 99998.1 99998.4 99998.7 99998.7 99998.4 99998.1 99997.9 99997.8 99997.8
          99997.9 99998.1 99998.3 99998.6 99998.6 99998.3 99998 99997.8 99997.8 99997.9 99998 99998.3
          99998.9 100000 100001 100001 100000 99998.9 99998.2 99997.9 99997.9 99998.2 99998.9 100000
          100001 100001 100000 99998.8 99998.1 99997.9 99998.1 99998.3 99999.2 100002 100006 100011
          100011 100006 100002 99999.1 99998.3 99998.3 99999.1 100001 100006 100011 100011 100006
          100001 99999.1 99998.5 99998.5 99999.1 100002 100009 100023 100037 100037 100023 100009
          100002 99999.2 99999.2 100002 100009 100023 100037 100037 100023 100009 100002 100000
          99999.2 100001 100008 100027 100057 100082 100082 100057 100027 100008 100001 100001
          100008 100027 100057 100082 100082 100057 100027 100009 100003 100001 100004 100021
          100058 100102 100134 100134 100102 100058 100021 100005 100005 100021 100058 100102
          100134 100134 100102 100058 100022 100010 100003 100010 100041 100094 100145 100179
          100179 100145 100094 100042 100012 100012 100041 100094 100145 100179 100179 100145
          100094 100043 100021 100005 100018 100062 100124 100179 100216 100216 100179 100124
          100062 100020 100020 100062 100124 100179 100216 100216 100179 100124 100064 100032
          100006 100020 100072 100140 100201 100246 100246 100201 100140 100072 100023 100023
          100072 100140 100201 100246 100246 100201 100140 100074 100037 100003 100013 100054
          100123 100205 100274 100274 100205 100123 100054 100014 100014 100054 100123 100205
          100274 100274 100205 100123 100056 100024 100000 100000 100000 100000 100000 100321
          100321 100000 100000 100000 100000 100000 100000 100000 100000 100321 100321 100000
          100000 100000 100000
        </DataArray>
        <DataArray type="Float32" Name="pressure_n" NumberOfComponents="1" format="ascii">
          100963 100963 100963 100963 100963 100963 100963 100963 100963 100963 100963 100963
          100963 100963 100963 100963 100963 100963 100963 100963 100963 100963 100963 100963
          100963 100963 100963 100963 100963 100963 100963 100963 100963 100963 100963 100963
          100963 100963 100963 100963 100963 100963 100963 100963 100963 100963 100963 100963
          100963 100963 100963 100963 100963 100963 100963 100963 100963 100963 100963 100963
          100963 100963 100963 100963 100963 100963 100963 100963 100963 100963 100963 100963
          100963 100963 100963 100963 100963 100963 100963 100963 100963 100963 100963 100963
          100963 100963 100963 100963 100963 100963 100963 100963 100963 100963 100963 100963
          100963 100963 100963 100963 100963 100963 100963 100963 100963 100963 100963 100963
          100963 100963 100963 100963 100963 100963 100963 100963 100963 100963 100963 100963
          100963 100963 100963 100963 100963 100963 100963 100963 100963 100963 100963 100963
          100963 100963 100963 100963 100963 100963 100963 100963 100963 100963 100963 100963
          100963 100963 100963 100963 100963 100963 100963 100963 100963 100963 100963 100963
          100963 100963 100963 100963 100963 100963 100963 100963 100963 100963 100963 100963
          100963 100963 100963 100963 100963 100963 100963 100963 100963 100963 100963 100963
          100963 100963 100963 100963 100963 100963 100963 100963 100963 100963 100963 100963
          100963 100963 100963 100963 100963 100963 100963 100963 100963 100963 100963 100963
          100963 100963 100963 100963 100963 100963 100963 100963 100963 100963 100963 100963
          100963 100963 100963 100963 100963 100963 100963 100963 100963 100963 100963 100963
          100963 100963 100963 100963 100963 100963 100963 100963 100963 100963 100963 100963
          100963 100963 100963 100963 100963 100963 100963 100963 100963 100963 100963 100963
          100963 100963 100963 100963 100963 100963 100963 100963 100963 100963 100963 100963
          100963 100963 100963 100963 100963 100963 100963 100963 100963 100963 100963 100963
          100963 100963 100963 100963 100963 100963 100963 100963 100963 100963 100963 100963
          100963 100963 100963 100963 100963 100963 100963 100963 100963 100963 100963 100963
          100963 100963 100963 100963 100963 100963 100963 100963 100963 100963 100963 100963
          100963 100963 100963 100963 100963 100963 100963 100963 100963 100963 100963 100963
          100963 100963 100963 100963 100963 100963 100963 100963 100963 100963 100963 100963
          100963 100963 100963 100963 100963 100963 100963 100963 100963 100963 100963 100963
          100963 100963 100963 100963 100963 100963 100963 100963 100963 100962 100962 100962
          100962 100962 100962 100962 100962 100962 100962 100962 100962 100962 100962 100962
          100962 100962 100962 100962 100962 100962 100962 100962 100962 100962 100962 100962
          100962 100962 100962 100962 100962 100962 100962 100962 100962 100962 100962 100962
          100962 100962 100962 100962 100962 100962 100962 100962 100962 100962 100962 100962
          100962 100962 100962 100962 100962 100962 100962 100962 100962 100962 100962 100962
          100962 100962 100962 100962 100962 100962 100962 100962 100962 100962 100962 100962
          100962 100962 100962 100962 100962 100962 100962 100962 100962 100962 100962 100962
          100962 100962 100962 100962 100962 100962 100962 100962 100962 100962 100962 100962
          100962 100962 100962 100962 100962 100962 100962 100962 100962 100962 100962 100962
          100962 100962 100962 100962 100962 100962 100962 100962 100962 100962 100962 100962
          100962 100962 100962 100962 100962 100962 100962 100962 100962 100962 100962 100962
          100962 100962 100962 100962 100962 100962 100962 100962 100962 100962 100962 100962
          100962 100962 100962 100962 100962 100962 100962 100962 100962 100962 100962 100962
          100962 100962 100962 100962 100962 100962 100962 100962 100962 100962 100962 100962
          100962 100962 100962 100962 100962 100962 100962 100962 100962 100962 100962 100962
          100962 100962 100962 100962 100962 100962 100962 100962 100962 100962 100962 100962
          100962 100962 100962 100962 100962 100962 100962 100962 100962 100962 100962 100962
          100962 100962 100962 100962 100962 100962 100962 100962 100962 100962 100962 100962
          100962 100962 100962 100962 100962 100962 100962 100962 100962 100962 100962 100962
          100962 100962 100962 100962 100962 100962 100962 100962 100962 100962 100962 100962
          100962 100962 100962 100962 100962 100962 100962 100962 100962 100962 100962 100962
          100962 100962 100962 100962 100962 100962 100962 100962 100962 100962 100962 100962
          100962 100962 100962 100962 100962 100962 100962 100962 100962 100962 100962 100962
          100962 100962 100962 100962 100962 100962 100962 100962 100962 100962 100962 100962
          100962 100962 100962 100962 100962 100962 100962 100962 100962 100962 100962 100962
          100962 100962 100962 100962 100962 100962 100962 100962 100962 100962 100962 100962
          100962 100962 100962 100962 100962 100962 100962 100962 100962 100962 100962 100962
          100962 100962 100962 100962 100962 100962 100962 100962 100962 100962 100962 100962
          100962 100962 100962 100962 100962 100962 100962 100962 100962 100962 100962 100962
          100962 100962 100962 100962 100962 100962 100962 100962 100962 100962 100962 100962
          100962 100962 100962 100962 100962 100962 100962 100962 100962 100962 100962 100962
          100962 100962 100962 100962 100962 100962 100962 100962 100962 100962 100962 100962
          100962 100962 100962 100962 100962 100962 100962 100962 100962 100962 100962 100962
          100962 100962 100962 100962 100962 100962 100962 100962 100962 100962 100962 100962
          100962 100962 100962 100962 100962 100962 100962 100962 100962 100962 100962 100962
          100962 100962 100962 100962 100962 100962 100962 100962 100962 100962 100962 100962
          100962 100962 100962 100962 100962 100962 100962 100962 100962 100962 100962 100962
          100962 100962 100962 100962 100962 100962 100962 100962 100962 100962 100962 100962
          100962 100962 100962 100962 100962 100962 100962 100962 100962 100962 100962 100962
          100962 100962 100962 100962 100962 100962 100962 100962 100962 100962 100962 100962
          100962 100962 100962 100962 100962 100962 100962 100962 100962 100962 100962 100962
          100962 100962 100962 100962 100962 100962 100962 100962 100962 100962 100962 100962
          100962 100962 100962 100962 100962 100962 100962 100962 100962 100962 100962 100962
          100962 100962 100962 100962 100962 100962 100962 100962 100962 100962 100962 100962
          100962 100962 100962 100962 100962 100962 100962 100962 100962 100962 100962 100962
          100962 100962 100962 100962 100962 100962 100962 100962 100962 100962 100962 100962
          100962 100962 100962 100962 100962 100962 100962 100962 100962 100962 100962 100962
          100961 100961 100961 100961 100961 100961 100961 100961 100961 100961 100961 100961
          100961 100961 100961 100961 100961 100961 100961 100961 100961 100961 100961 100961
          100961 100961 100961 100961 100961 100961 100961 100961 100961 100961 100961 100961
          100961 100961 100961 100961 100961 100961 100961 100961 100961 100961 100961 100961
          100961 100961 100961 100961 100961 100961 100961 100961 100961 100961 100961 100961
          100961 100961 100961 100961 100961 100961 100961 100961 100961 100961 100961 100961
          100961 100961 100961 100961 100961 100961 100961 100961 100961 100961 100961 100961
          100961 100961 100961 100961 100961 100961 100961 100961 100961 100961 100961 100961
          100961 100961 100961 100961 100961 100961 100961 100961 100961 100961 100961 100961
          100961 100961 100961 100961 100961 100961 100961 100961 100961 100961 100961 100961
          100961 100961 100961 100961 100961 100961 100961 100961 100961 100961 100961 100961
          100961 100961 100961 100961 100961 100961 100961 100961 100961 100961 100961 100961
          100961 100961 100961 100961 100961 100961 100961 100961 100961 100961 100961 100961
          100961 100961 100961 100961 100961 100961 100961 100961 100961 100961 100961 100961
          100961 100961 100961 100961 100961 100961 100961 100961 100961 100961 100961 100961
          100961 100961 100961 100961 100961 100961 100961 100961 100961 100961 100961 100961
          100961 100961 100961 100961 100961 100961 100961 100961 100961 100961 100961 100961
          100961 100961 100961 100961 100961 100961 100961 100961 100961 100961 100961 100961
          100961 100961 100961 100961 100961 100961 100961 100961 100961 100961 100961 100961
          100961 100961 100961 100961 100961 100961 100961 100961 100961 100961 100961 100961
          100961 100961 100961 100961 100961 100961 100961 100961 100961 100961 100961 100961
          100961 100961 100961 100961 100961 100961 100961 100961 100961 100961 100961 100961
          100961 100961 100961 100961 100961 100961 100961 100961 100961 100961 100961 100961
          100961 100961 100961 100961 100961 100961 100961 100961 100961 100961 100961 100961
          100961 100961 100961 100961 100961 100961 100961 100961 100961 100961 100961 100961
          100961 100961 100961 100961 100961 100961 100961 100961 100961 100961 100961 100961
          100961 100961 100961 100961 100961 100961 100961 100961 100961 100961 100961 100961
          100961 100961 100961 100961 100961 100961 100961 100961 100961 100961 100961 100961
          100961 100961 100961 100961 100961 100961 100961 100961 100961 100961 100961 100961
          100961 100961 100961 100961 100961 100961 100961 100961 100961 100961 100961 100961
          100961 100961 100961 100961 100961 100961 100961 100961 100961 100961 100961 100961
          100961 100961 100961 100961 100961 100961 100961 100961 100961 100961 100961 100961
          100961 100961 100961 100961 100961 100961 100961 100961 100961 100961 100961 100961
          100961 100961 100961 100961 100961 100961 100961 100961 100961 100961 100961 100961
          100961 100961 100961 100961 100961 100961 100961 100961 100961 100961 100961 100961
          100961 100961 100961 100961 100961 100961 100961 100961 100961 100961 100961 100961
          100961 100961 100961 100960 100960 100961 100961 100961 100961 100961 100961 100961
          100961 100961 100960 100960 100961 100961 100961 100961 100961 100961 100961 100960
          100960 100960 100960 100961 100961 100961 100961 100961 100961 100961 100960 100960
          100960 100960 100961 100961 100961 100961 100961 100961 100960 100960 100960 100960
          100961 100961 100961 100962 100962 100961 100961 100960 100960 100960 100960 100961
          100961 100961 100961 100961 100961 100960 100960 100959 100960 100961 100961 100961
          100962 100962 100962 100961 100960 100959 100959 100960 100961 100962 100962 100962
          100962 100961 100960 100959 100958 100960 100961 100962 100962 100963 100963 100962
          100962 100960 100956 100956 100960 100962 100962 100962 100962 100962 100962 100960
          100956 100956 100960 100962 100962 100962 100963 100963 100963 100963 100963 100950
          100950 100963 100963 100963 100963 100963 100963 100963 100963 100950 100950 100963
          100963 100963 100963
        </DataArray>
        <DataArray type="Float32" Name="density_w" NumberOfComponents="1" format="ascii">
          1000 1000 1000 1000 1000 1000 1000 1000 1000 1000 1000 1000
          1000 1000 1000 1000 1000 1000 1000 1000 1000 1000 1000 1000
          1000 1000 1000 1000 1000 1000 1000 1000 1000 1000 1000 1000
          1000 1000 1000 1000 1000 1000 1000 1000 1000 1000 1000 1000
          1000 1000 1000 1000 1000 1000 1000 1000 1000 1000 1000 1000
          1000 1000 1000 1000 1000 1000 1000 1000 1000 1000 1000 1000
          1000 1000 1000 1000 1000 1000 1000 1000 1000 1000 1000 1000
          1000 1000 1000 1000 1000 1000 1000 1000 1000 1000 1000 1000
          1000 1000 1000 1000 1000 1000 1000 1000 1000 1000 1000 1000
          1000 1000 1000 1000 1000 1000 1000 1000 1000 1000 1000 1000
          1000 1000 1000 1000 1000 1000 1000 1000 1000 1000 1000 1000
          1000 1000 1000 1000 1000 1000 1000 1000 1000 1000 1000 1000
          1000 1000 1000 1000 1000 1000 1000 1000 1000 1000 1000 1000
          1000 1000 1000 1000 1000 1000 1000 1000 1000 1000 1000 1000
          1000 1000 1000 1000 1000 1000 1000 1000 1000 1000 1000 1000
          1000 1000 1000 1000 1000 1000 1000 1000 1000 1000 1000 1000
          1000 1000 1000 1000 1000 1000 1000 1000 1000 1000 1000 1000
          1000 1000 1000 1000 1000 1000 1000 1000 1000 1000 1000 1000
          1000 1000 1000 1000 1000 1000 1000 1000 1000 1000 1000 1000
          1000 1000 1000 1000 1000 1000 1000 1000 1000 1000 1000 1000
          1000 1000 1000 1000 1000 1000 1000 1000 1000 1000 1000 1000
          1000 1000 1000 1000 1000 1000 1000 1000 1000 1000 1000 1000
          1000 1000 1000 1000 1000 1000 1000 1000 1000 1000 1000 1000
          1000 1000 1000 1000 1000 1000 1000 1000 1000 1000 1000 1000
          1000 1000 1000 1000 1000 1000 1000 1000 1000 1000 1000 1000
          1000 1000 1000 1000 1000 1000 1000 1000 1000 1000 1000 1000
          1000 1000 1000 1000 1000 1000 1000 1000 1000 1000 1000 1000
          1000 1000 1000 1000 1000 1000 1000 1000 1000 1000 1000 1000
          1000 1000 1000 1000 1000 1000 1000 1000 1000 1000 1000 1000
          1000 1000 1000 1000 1000 1000 1000 1000 1000 1000 1000 1000
          1000 1000 1000 1000 1000 1000 1000 1000 1000 1000 1000 1000
          1000 1000 1000 1000 1000 1000 1000 1000 1000 1000 1000 1000
          1000 1000 1000 1000 1000 1000 1000 1000 1000 1000 1000 1000
          1000 1000 1000 1000 1000 1000 1000 1000 1000 1000 1000 1000
          1000 1000 1000 1000 1000 1000 1000 1000 1000 1000 1000 1000
          1000 1000 1000 1000 1000 1000 1000 1000 1000 1000 1000 1000
          1000 1000 1000 1000 1000 1000 1000 1000 1000 1000 1000 1000
          1000 1000 1000 1000 1000 1000 1000 1000 1000 1000 1000 1000
          1000 1000 1000 1000 1000 1000 1000 1000 1000 1000 1000 1000
          1000 1000 1000 1000 1000 1000 1000 1000 1000 1000 1000 1000
          1000 1000 1000 1000 1000 1000 1000 1000 1000 1000 1000 1000
          1000 1000 1000 1000 1000 1000 1000 1000 1000 1000 1000 1000
          1000 1000 1000 1000 1000 1000 1000 1000 1000 1000 1000 1000
          1000 1000 1000 1000 1000 1000 1000 1000 1000 1000 1000 1000
          1000 1000 1000 1000 1000 1000 1000 1000 1000 1000 1000 1000
          1000 1000 1000 1000 1000 1000 1000 1000 1000 1000 1000 1000
          1000 1000 1000 1000 1000 1000 1000 1000 1000 1000 1000 1000
          1000 1000 1000 1000 1000 1000 1000 1000 1000 1000 1000 1000
          1000 1000 1000 1000 1000 1000 1000 1000 1000 1000 1000 1000
          1000 1000 1000 1000 1000 1000 1000 1000 1000 1000 1000 1000
          1000 1000 1000 1000 1000 1000 1000 1000 1000 1000 1000 1000
          1000 1000 1000 1000 1000 1000 1000 1000 1000 1000 1000 1000
          1000 1000 1000 1000 1000 1000 1000 1000 1000 1000 1000 1000
          1000 1000 1000 1000 1000 1000 1000 1000 1000 1000 1000 1000
          1000 1000 1000 1000 1000 1000 1000 1000 1000 1000 1000 1000
          1000 1000 1000 1000 1000 1000 1000 1000 1000 1000 1000 1000
          1000 1000 1000 1000 1000 1000 1000 1000 1000 1000 1000 1000
          1000 1000 1000 1000 1000 1000 1000 1000 1000 1000 1000 1000
          1000 1000 1000 1000 1000 1000 1000 1000 1000 1000 1000 1000
          1000 1000 1000 1000 1000 1000 1000 1000 1000 1000 1000 1000
          1000 1000 1000 1000 1000 1000 1000 1000 1000 1000 1000 1000
          1000 1000 1000 1000 1000 1000 1000 1000 1000 1000 1000 1000
          1000 1000 1000 1000 1000 1000 1000 1000 1000 1000 1000 1000
          1000 1000 1000 1000 1000 1000 1000 1000 1000 1000 1000 1000
          1000 1000 1000 1000 1000 1000 1000 1000 1000 1000 1000 1000
          1000 1000 1000 1000 1000 1000 1000 1000 1000 1000 1000 1000
          1000 1000 1000 1000 1000 1000 1000 1000 1000 1000 1000 1000
          1000 1000 1000 1000 1000 1000 1000 1000 1000 1000 1000 1000
          1000 1000 1000 1000 1000 1000 1000 1000 1000 1000 1000 1000
          1000 1000 1000 1000 1000 1000 1000 1000 1000 1000 1000 1000
          1000 1000 1000 1000 1000 1000 1000 1000 1000 1000 1000 1000
          1000 1000 1000 1000 1000 1000 1000 1000 1000 1000 1000 1000