<?xml version="1.0"?>
<VTKFile type="UnstructuredGrid" version="0.1" byte_order="LittleEndian">
  <UnstructuredGrid>
    <Piece NumberOfCells="350" NumberOfPoints="396">
      <PointData Scalars="pressure_wetting">
        <DataArray type="Float32" Name="pressure_wetting" NumberOfComponents="1" format="ascii">
          100000 100000 99994.5 99994.5 99989 99989 99983.5 99983.5 99978 99978 99972.5 99972.5
          99967 99967 99961.5 99961.5 99956.2 99956.2 99951.1 99951 99946.7 99946.6 99944.3 99944
          99946.7 99945.8 99958.7 99956.6 99983.5 99980.1 100018 100013 100054 100050 100087 100083
          100113 100110 100133 100130 100147 100145 100157 100155 100162 100161 100165 100164
          100166 100165 100164 100163 100161 100161 100155 100156 100148 100150 100138 100142
          100126 100133 100109 100120 100089 100104 100065 100082 100038 100049 100000 100000
          100000 99994.5 99989 99983.5 99978 99972.5 99967 99961.5 99956.1 99950.9 99946.3 99943.1
          99943.4 99951.3 99971 100002 100037 100071 100099 100121 100137 100148 100155 100159
          100161 100161 100159 100156 100153 100149 100144 100137 100127 100106 100052 99956.2
          100000 99994.5 99989 99983.5 99978 99972.5 99967 99961.5 99956.1 99950.8 99945.9 99942
          99940.5 99944.6 99958.6 99984.1 100017 100051 100081 100105 100123 100136 100144 100150
          100152 100153 100152 100151 100148 100145 100141 100136 100128 100106 100052 99956.3
          100000 99994.5 99989 99983.5 99978 99972.5 99967 99961.5 99956 99950.7 99945.6 99941
          99938 99938.4 99945.9 99963.9 99991.6 100024 100055 100081 100102 100117 100128 100135
          100139 100140 100140 100138 100135 100130 100125 100117 100105 100085 100049 100000
          100000 99994.5 99989 99983.5 99978 99972.5 99967 99961.5 99956 99950.6 99945.3 99940.4
          99936.2 99934 99935.9 99945.3 99964.7 99992 100022 100050 100074 100092 100106 100115
          100120 100123 100123 100121 100117 100111 100103 100093 100079 100061 100034 100000
          100000 99994.5 99989 99983.5 99978 99972.5 99967 99961.5 99956 99950.6 99945.2 99940
          99935.1 99931.3 99929.5 99932 99941.9 99960.7 99986.3 100014 100040 100061 100078 100090
          100098 100103 100104 100103 100100 100094 100087 100077 100064 100051 100036 100000
          100000 99994.5 99989 99983.5 99978 99972.5 99967 99961.5 99956 99950.5 99945.1 99939.8
          99934.6 99929.9 99926.1 99924.5 99926.9 99936.2 99953.6 99977.2 100003 100027 100048 100064
          100076 100083 100088 100089 100089 100087 100085 100082 100080 100075 100061 100000
          100000 99994.5 99989 99983.5 99978 99972.5 99967 99961.5 99956 99950.5 99945.1 99939.6
          99934.3 99929.2 99924.5 99920.9 99919.3 99921.7 99930.6 99947.3 99970.1 99995.3 100019 100040
          100056 100067 100075 100080 100084 100086 100089 100094 100101 100106 100084 99992.7
          100000 99994.5 99989 99983.5 99978 99972.5 99967 99961.5 99956 99950.5 99945.1 99939.6
          99934.2 99928.9 99923.9 99919.4 99916.1 99915.1 99918.7 99929.5 99948.2 99972.6 99998.4 100022
          100042 100057 100067 100074 100079 100082 100083 100083 100082 100076 100062 100000
          100000 99994.5 99989 99983.5 99978 99972.5 99967 99961.5 99956 99950.5 99945.1 99939.6
          99934.2 99928.9 99923.7 99919 99915.2 99913.3 99915.2 99923.8 99940.6 99964.2 99990.6 100016
          100037 100053 100064 100072 100077 100079 100078 100075 100068 100057 100045 100000
        </DataArray>
        <DataArray type="Float32" Name="pressure_nonwetting" NumberOfComponents="1" format="ascii">
          100963 100963 100958 100958 100952 100952 100947 100947 100941 100941 100936 100936
          100930 100930 100925 100925 100919 100919 100914 100914 100908 100908 100902 100902
          100897 100897 100891 100891 100886 100886 100880 100880 100875 100875 100869 100869
          100863 100863 100857 100857 100851 100852 100845 100846 100839 100839 100833 100833
          100826 100826 100819 100819 100812 100812 100804 100804 100795 100795 100785 100786
          100775 100775 100766 100764 100761 100752 100775 100746 100841 100766 100963 100963
          100963 100958 100952 100947 100941 100936 100930 100925 100919 100914 100908 100903
          100897 100891 100886 100880 100875 100869 100863 100858 100852 100846 100840 100833
          100827 100820 100813 100805 100797 100788 100777 100762 100740 100699 100600 100274
          100963 100958 100952 100947 100941 100936 100930 100925 100919 100914 100908 100903
          100897 100891 100886 100880 100875 100869 100864 100858 100852 100846 100840 100834
          100828 100822 100815 100808 100800 100792 100782 100768 100747 100705 100603 100275
          100963 100958 100952 100947 100941 100936 100930 100925 100919 100914 100908 100903
          100897 100892 100886 100880 100875 100869 100864 100858 100852 100847 100841 100835
          100829 100823 100817 100811 100804 100798 100791 100783 100775 100767 100779 100963
          100963 100958 100952 100947 100941 100936 100930 100925 100919 100914 100908 100903
          100897 100892 100886 100881 100875 100870 100864 100858 100853 100847 100842 100836
          100831 100825 100820 100814 100809 100804 100800 100798 100803 100822 100875 100963
          100963 100958 100952 100947 100941 100936 100930 100925 100919 100914 100908 100903
          100897 100892 100886 100881 100875 100870 100864 100859 100853 100848 100842 100837
          100832 100827 100822 100817 100813 100809 100807 100808 100814 100834 100884 100963
          100963 100958 100952 100947 100941 100936 100930 100925 100919 100914 100908 100903
          100897 100892 100886 100881 100875 100870 100864 100859 100854 100848 100843 100838
          100833 100828 100824 100819 100816 100813 100811 100811 100812 100813 100817 100963
          100963 100958 100952 100947 100941 100936 100930 100925 100919 100914 100908 100903
          100897 100892 100886 100881 100875 100870 100865 100859 100854 100849 100844 100839
          100834 100829 100825 100821 100818 100815 100813 100811 100808 100794 100731 100327
          100963 100958 100952 100947 100941 100936 100930 100925 100919 100914 100908 100903
          100897 100892 100886 100881 100875 100870 100865 100859 100854 100849 100844 100839
          100834 100830 100826 100822 100819 100816 100814 100813 100811 100810 100815 100963
          100963 100958 100952 100947 100941 100936 100930 100925 100919 100914 100908 100903
          100897 100892 100886 100881 100875 100870 100865 100859 100854 100849 100844 100839
          100835 100830 100826 100823 100819 100817 100815 100814 100815 100826 100874 100963
        </DataArray>
        <DataArray type="Float32" Name="density_wetting" NumberOfComponents="1" format="ascii">
          1000 1000 1000 1000 1000 1000 1000 1000 1000 1000 1000 1000
          1000 1000 1000 1000 1000 1000 1000 1000 1000 1000 1000 1000
          1000 1000 1000 1000 1000 1000 1000 1000 1000 1000 1000 1000
          1000 1000 1000 1000 1000 1000 1000 1000 1000 1000 1000 1000
          1000 1000 1000 1000 1000 1000 1000 1000 1000 1000 1000 1000
          1000 1000 1000 1000 1000 1000 1000 1000 1000 1000 1000 1000
          1000 1000 1000 1000 1000 1000 1000 1000 1000 1000 1000 1000
          1000 1000 1000 1000 1000 1000 1000 1000 1000 1000 1000 1000
          1000 1000 1000 1000 1000 1000 1000 1000 1000 1000 1000 1000
          1000 1000 1000 1000 1000 1000 1000 1000 1000 1000 1000 1000
          1000 1000 1000 1000 1000 1000 1000 1000 1000 1000 1000 1000
          1000 1000 1000 1000 1000 1000 1000 1000 1000 1000 1000 1000
          1000 1000 1000 1000 1000 1000 1000 1000 1000 1000 1000 1000
          1000 1000 1000 1000 1000 1000 1000 1000 1000 1000 1000 1000
          1000 1000 1000 1000 1000 1000 1000 1000 1000 1000 1000 1000
          1000 1000 1000 1000 1000 1000 1000 1000 1000 1000 1000 1000
          1000 1000 1000 1000 1000 1000 1000 1000 1000 1000 1000 1000
          1000 1000 1000 1000 1000 1000 1000 1000 1000 1000 1000 1000
          1000 1000 1000 1000 1000 1000 1000 1000 1000 1000 1000 1000
          1000 1000 1000 1000 1000 1000 1000 1000 1000 1000 1000 1000
          1000 1000 1000 1000 1000 1000 1000 1000 1000 1000 1000 1000
          1000 1000 1000 1000 1000 1000 1000 1000 1000 1000 1000 1000
          1000 1000 1000 1000 1000 1000 1000 1000 1000 1000 1000 1000
          1000 1000 1000 1000 1000 1000 1000 1000 1000 1000 1000 1000
          1000 1000 1000 1000 1000 1000 1000 1000 1000 1000 1000 1000
          1000 1000 1000 1000 1000 1000 1000 1000 1000 1000 1000 1000
          1000 1000 1000 1000 1000 1000 1000 1000 1000 1000 1000 1000
          1000 1000 1000 1000 1000 1000 1000 1000 1000 1000 1000 1000
          1000 1000 1000 1000 1000 1000 1000 1000 1000 1000 1000 1000
          1000 1000 1000 1000 1000 1000 1000 1000 1000 1000 1000 1000
          1000 1000 1000 1000 1000 1000 1000 1000 1000 1000 1000 1000
          1000 1000 1000 1000 1000 1000 1000 1000 1000 1000 1000 1000
          1000 1000 1000 1000 1000 1000 1000 1000 1000 1000 1000 1000
        </DataArray>
        <DataArray type="Float32" Name="density_nonwetting" NumberOfComponents="1" format="ascii">
          1.1996 1.1996 1.19954 1.19954 1.19947 1.19947 1.1994 1.1994 1.19934 1.19934 1.19927 1.19927
          1.19921 1.19921 1.19914 1.19914 1.19908 1.19908 1.19901 1.19901 1.19895 1.19895 1.19888 1.19888
          1.19881 1.19881 1.19875 1.19875 1.19868 1.19868 1.19862 1.19862 1.19855 1.19855 1.19848 1.19848
          1.19841 1.19841 1.19834 1.19835 1.19827 1.19828 1.1982 1.1982 1.19813 1.19813 1.19805 1.19805
          1.19797 1.19798 1.19789 1.19789 1.1978 1.19781 1.1977 1.19771 1.1976 1.19761 1.19749 1.19749
          1.19737 1.19737 1.19725 1.19723 1.1972 1.1971 1.19736 1.19702 1.19815 1.19726 1.1996 1.1996
          1.1996 1.19954 1.19947 1.1994 1.19934 1.19927 1.19921 1.19914 1.19908 1.19901 1.19895 1.19888
          1.19881 1.19875 1.19868 1.19862 1.19855 1.19848 1.19842 1.19835 1.19828 1.19821 1.19813 1.19806
          1.19798 1.1979 1.19782 1.19773 1.19763 1.19752 1.19738 1.19721 1.19695 1.19646 1.19528 1.19142
          1.1996 1.19954 1.19947 1.1994 1.19934 1.19927 1.19921 1.19914 1.19908 1.19901 1.19895 1.19888
          1.19882 1.19875 1.19868 1.19862 1.19855 1.19848 1.19842 1.19835 1.19828 1.19821 1.19814 1.19807
          1.198 1.19792 1.19784 1.19776 1.19767 1.19757 1.19745 1.19729 1.19704 1.19654 1.19533 1.19143
          1.1996 1.19954 1.19947 1.1994 1.19934 1.19927 1.19921 1.19914 1.19908 1.19901 1.19895 1.19888
          1.19882 1.19875 1.19868 1.19862 1.19855 1.19849 1.19842 1.19835 1.19829 1.19822 1.19815 1.19808
          1.19801 1.19794 1.19787 1.19779 1.19771 1.19764 1.19755 1.19746 1.19736 1.19728 1.19742 1.1996
          1.1996 1.19954 1.19947 1.1994 1.19934 1.19927 1.19921 1.19914 1.19908 1.19901 1.19895 1.19888
          1.19882 1.19875 1.19869 1.19862 1.19855 1.19849 1.19842 1.19836 1.19829 1.19822 1.19816 1.19809
          1.19803 1.19796 1.19789 1.19783 1.19777 1.19771 1.19766 1.19764 1.19769 1.19792 1.19856 1.1996
          1.1996 1.19954 1.19947 1.1994 1.19934 1.19927 1.19921 1.19914 1.19908 1.19901 1.19895 1.19888
          1.19882 1.19875 1.19869 1.19862 1.19856 1.19849 1.19843 1.19836 1.1983 1.19823 1.19817 1.1981
          1.19804 1.19798 1.19792 1.19787 1.19782 1.19777 1.19775 1.19776 1.19783 1.19807 1.19866 1.1996
          1.1996 1.19954 1.19947 1.1994 1.19934 1.19927 1.19921 1.19914 1.19908 1.19901 1.19895 1.19888
          1.19882 1.19875 1.19869 1.19862 1.19856 1.19849 1.19843 1.19836 1.1983 1.19824 1.19818 1.19811
          1.19806 1.198 1.19794 1.19789 1.19785 1.19782 1.1978 1.19779 1.1978 1.19781 1.19787 1.1996
          1.1996 1.19954 1.19947 1.1994 1.19934 1.19927 1.19921 1.19914 1.19908 1.19901 1.19895 1.19888
          1.19882 1.19875 1.19869 1.19862 1.19856 1.19849 1.19843 1.19837 1.1983 1.19824 1.19818 1.19812
          1.19807 1.19801 1.19796 1.19791 1.19788 1.19784 1.19782 1.1978 1.19775 1.19759 1.19684 1.19204
          1.1996 1.19954 1.19947 1.1994 1.19934 1.19927 1.19921 1.19914 1.19908 1.19901 1.19895 1.19888
          1.19882 1.19875 1.19869 1.19862 1.19856 1.1985 1.19843 1.19837 1.19831 1.19825 1.19819 1.19813
          1.19807 1.19802 1.19797 1.19793 1.19789 1.19786 1.19783 1.19781 1.1978 1.19779 1.19784 1.1996
          1.1996 1.19954 1.19947 1.1994 1.19934 1.19927 1.19921 1.19914 1.19908 1.19901 1.19895 1.19888
          1.19882 1.19875 1.19869 1.19862 1.19856 1.1985 1.19843 1.19837 1.19831 1.19825 1.19819 1.19813
          1.19807 1.19802 1.19797 1.19793 1.19789 1.19786 1.19784 1.19783 1.19784 1.19797 1.19854 1.1996
        </DataArray>
        <DataArray type="Float32" Name="saturation_wetting" NumberOfComponents="1" format="ascii">
          0.01 0.01 0.00999999 0.00999999 0.01 0.01 0.01 0.01 0.0100001 0.0100001 0.0100004 0.0100004
          0.0100012 0.0100012 0.0100034 0.0100032 0.0100095 0.0100089 0.0100264 0.0100246 0.0100724 0.0100673 0.0101956 0.0101813
          0.0105063 0.010469 0.0111991 0.0111154 0.0125201 0.0123622 0.0146018 0.014359 0.0173426 0.0170254 0.0204833 0.0201149
          0.0237256 0.0233316 0.0268261 0.0264279 0.0296309 0.0292439 0.0320689 0.0317035 0.0341275 0.0337919 0.0358289 0.0355317
          0.0372096 0.036964 0.0383068 0.0381344 0.0391479 0.0390848 0.0397413 0.0398466 0.0400643 0.0404362 0.04004 0.0408456
          0.039493 0.0410137 0.0380562 0.0407667 0.034983 0.0396573 0.028927 0.036499 0.0187312 0.0277908 0.01 0.01
          0.01 0.00999999 0.01 0.01 0.0100001 0.0100003 0.010001 0.0100027 0.0100074 0.0100201 0.0100545 0.0101453
          0.0103752 0.0109031 0.0119514 0.0137087 0.0161533 0.0190787 0.0222013 0.0252647 0.0280924 0.0305924 0.0327397 0.0345535
          0.0360792 0.0373764 0.0385132 0.0395665 0.0406245 0.0417985 0.0432541 0.0452723 0.0484332 0.0543872 0.0721171 0.405476
          0.01 0.00999999 0.00999999 0.01 0.0100001 0.0100003 0.0100007 0.010002 0.0100054 0.0100146 0.0100388 0.010102
          0.0102619 0.0106379 0.0114172 0.012811 0.0148867 0.0175112 0.0204354 0.0233984 0.0261994 0.0287187 0.0309073 0.0327675
          0.0343337 0.0356598 0.0368115 0.0378652 0.0389117 0.0400692 0.0415096 0.0435196 0.04668 0.0526152 0.070303 0.403404
          0.01 0.00999999 0.00999999 0.01 0.01 0.0100002 0.0100005 0.0100013 0.0100036 0.0100094 0.0100247 0.0100637
          0.0101616 0.0103955 0.0109044 0.0118754 0.0134621 0.0156394 0.0182275 0.0209828 0.0236837 0.0261742 0.0283683 0.0302357
          0.0317838 0.0330412 0.0340459 0.0348363 0.0354435 0.0358808 0.036124 0.0360649 0.0353851 0.0331432 0.0260765 0.01
          0.01 0.00999998 0.00999998 0.00999999 0.01 0.0100001 0.0100003 0.0100008 0.0100022 0.0100056 0.0100142 0.010036
          0.0100897 0.0102182 0.0105081 0.0110976 0.012154 0.0137708 0.015878 0.0182911 0.0207909 0.0231895 0.0253577 0.0272225
          0.0287542 0.0299495 0.0308165 0.0313612 0.0315737 0.0314101 0.0307633 0.0294125 0.0269338 0.0226317 0.0159507 0.01
          0.01 0.00999998 0.00999998 0.00999999 0.01 0.01 0.0100002 0.0100005 0.0100012 0.010003 0.0100076 0.0100187
          0.0100457 0.0101097 0.0102561 0.0105701 0.0111768 0.0122158 0.0137456 0.0156867 0.0178699 0.0201016 0.0222159 0.0240947
          0.0256662 0.0268944 0.0277647 0.0282705 0.0283989 0.0281151 0.0273435 0.0259478 0.0237315 0.0203625 0.0154964 0.01
          0.01 0.00999998 0.00999998 0.00999998 0.00999999 0.01 0.0100001 0.0100002 0.0100006 0.0100015 0.0100038 0.0100092
          0.010022 0.0100518 0.0101201 0.0102705 0.0105814 0.0111624 0.0121322 0.0135385 0.0153112 0.0173006 0.0193305 0.0212445
          0.0229279 0.0243108 0.0253625 0.0260825 0.0264919 0.0266301 0.026555 0.0263327 0.0259506 0.0252271 0.0231179 0.01
          0.01 0.00999998 0.00999998 0.00999998 0.00999998 0.01 0.01 0.0100001 0.0100003 0.0100008 0.0100019 0.0100044
          0.0100104 0.0100243 0.0100557 0.0101258 0.0102768 0.0105829 0.0111469 0.0120807 0.0134331 0.0151415 0.0170613 0.0190158
          0.0208482 0.0224491 0.023765 0.0247949 0.0255849 0.0262272 0.0268661 0.027725 0.0292116 0.0322066 0.0401494 0.356369
          0.01 0.00999998 0.00999998 0.00999998 0.00999998 0.00999999 0.01 0.0100001 0.0100002 0.0100004 0.010001 0.0100023
          0.0100055 0.0100126 0.010029 0.0100658 0.0101473 0.0103219 0.0106729 0.0113112 0.0123521 0.0138249 0.0156374 0.0176132
          0.0195588 0.0213212 0.0228104 0.0239961 0.0248914 0.0255329 0.0259604 0.0261919 0.0261741 0.0256268 0.0234175 0.01
          0.01 0.00999998 0.00999998 0.00999998 0.00999998 0.00999998 0.01 0.01 0.0100001 0.0100003 0.0100007 0.0100018
          0.0100041 0.0100095 0.0100219 0.0100499 0.0101127 0.0102502 0.0105361 0.0110787 0.0120034 0.0133793 0.015143 0.0171221
          0.0191073 0.0209239 0.0224628 0.0236761 0.0245557 0.0251041 0.0253012 0.025054 0.0240969 0.0217657 0.0167402 0.01
        </DataArray>
        <DataArray type="Float32" Name="saturation_nonwetting" NumberOfComponents="1" format="ascii">
          0.99 0.99 0.99 0.99 0.99 0.99 0.99 0.99 0.99 0.99 0.99 0.99
          0.989999 0.989999 0.989997 0.989997 0.98999 0.989991 0.989974 0.989975 0.989928 0.989933 0.989804 0.989819
          0.989494 0.989531 0.988801 0.988885 0.98748 0.987638 0.985398 0.985641 0.982657 0.982975 0.979517 0.979885
          0.976274 0.976668 0.973174 0.973572 0.970369 0.970756 0.967931 0.968296 0.965872 0.966208 0.964171 0.964468
          0.96279 0.963036 0.961693 0.961866 0.960852 0.960915 0.960259 0.960153 0.959936 0.959564 0.95996 0.959154
          0.960507 0.958986 0.961944 0.959233 0.965017 0.960343 0.971073 0.963501 0.981269 0.972209 0.99 0.99
          0.99 0.99 0.99 0.99 0.99 0.99 0.989999 0.989997 0.989993 0.98998 0.989946 0.989855
          0.989625 0.989097 0.988049 0.986291 0.983847 0.980921 0.977799 0.974735 0.971908 0.969408 0.96726 0.965447
          0.963921 0.962624 0.961487 0.960433 0.959376 0.958201 0.956746 0.954728 0.951567 0.945613 0.927883 0.594524
          0.99 0.99 0.99 0.99 0.99 0.99 0.989999 0.989998 0.989995 0.989985 0.989961 0.989898
          0.989738 0.989362 0.988583 0.987189 0.985113 0.982489 0.979565 0.976602 0.973801 0.971281 0.969093 0.967233
          0.965666 0.96434 0.963188 0.962135 0.961088 0.959931 0.95849 0.95648 0.95332 0.947385 0.929697 0.596596
          0.99 0.99 0.99 0.99 0.99 0.99 0.99 0.989999 0.989996 0.989991 0.989975 0.989936
          0.989838 0.989605 0.989096 0.988125 0.986538 0.984361 0.981772 0.979017 0.976316 0.973826 0.971632 0.969764
          0.968216 0.966959 0.965954 0.965164 0.964557 0.964119 0.963876 0.963935 0.964615 0.966857 0.973923 0.99
          0.99 0.99 0.99 0.99 0.99 0.99 0.99 0.989999 0.989998 0.989994 0.989986 0.989964
          0.98991 0.989782 0.989492 0.988902 0.987846 0.986229 0.984122 0.981709 0.979209 0.97681 0.974642 0.972777
          0.971246 0.970051 0.969184 0.968639 0.968426 0.96859 0.969237 0.970588 0.973066 0.977368 0.984049 0.99
          0.99 0.99 0.99 0.99 0.99 0.99 0.99 0.99 0.989999 0.989997 0.989992 0.989981
          0.989954 0.98989 0.989744 0.98943 0.988823 0.987784 0.986254 0.984313 0.98213 0.979898 0.977784 0.975905
          0.974334 0.973106 0.972235 0.971729 0.971601 0.971885 0.972656 0.974052 0.976268 0.979638 0.984504 0.99
          0.99 0.99 0.99 0.99 0.99 0.99 0.99 0.99 0.989999 0.989998 0.989996 0.989991
          0.989978 0.989948 0.98988 0.989729 0.989419 0.988838 0.987868 0.986461 0.984689 0.982699 0.98067 0.978755
          0.977072 0.975689 0.974637 0.973918 0.973508 0.97337 0.973445 0.973667 0.974049 0.974773 0.976882 0.99
          0.99 0.99 0.99 0.99 0.99 0.99 0.99 0.99 0.99 0.989999 0.989998 0.989996
          0.98999 0.989976 0.989944 0.989874 0.989723 0.989417 0.988853 0.987919 0.986567 0.984859 0.982939 0.980984
          0.979152 0.977551 0.976235 0.975205 0.974415 0.973773 0.973134 0.972275 0.970788 0.967793 0.959851 0.643631
          0.99 0.99 0.99 0.99 0.99 0.99 0.99 0.99 0.99 0.99 0.989999 0.989998
          0.989995 0.989987 0.989971 0.989934 0.989853 0.989678 0.989327 0.988689 0.987648 0.986175 0.984363 0.982387
          0.980441 0.978679 0.97719 0.976004 0.975109 0.974467 0.97404 0.973808 0.973826 0.974373 0.976583 0.99
          0.99 0.99 0.99 0.99 0.99 0.99 0.99 0.99 0.99 0.99 0.989999 0.989998
          0.989996 0.98999 0.989978 0.98995 0.989887 0.98975 0.989464 0.988921 0.987997 0.986621 0.984857 0.982878
          0.980893 0.979076 0.977537 0.976324 0.975444 0.974896 0.974699 0.974946 0.975903 0.978234 0.98326 0.99
        </DataArray>
        <DataArray type="Float32" Name="relativePerm_wetting" NumberOfComponents="1" format="ascii">
          5.14509e-07 5.14509e-07 5.14508e-07 5.14508e-07 5.14509e-07 5.14509e-07 5.14516e-07 5.14515e-07 5.14534e-07 5.14532e-07 5.14584e-07 5.1458e-07
          5.14723e-07 5.14711e-07 5.15108e-07 5.15072e-07 5.16171e-07 5.16067e-07 5.1911e-07 5.18804e-07 5.27213e-07 5.26316e-07 5.49309e-07 5.4671e-07
          6.07794e-07 6.00554e-07 7.52938e-07 7.34284e-07 1.09087e-06 1.04597e-06 1.80866e-06 1.71218e-06 3.16253e-06 2.97939e-06 5.40029e-06 5.0954e-06
          8.62834e-06 8.18092e-06 1.27357e-05 1.21472e-05 1.74325e-05 1.67248e-05 2.23578e-05 2.15667e-05 2.71821e-05 2.6352e-05 3.16611e-05 3.08456e-05
          3.56412e-05 3.49099e-05 3.9034e-05 3.84869e-05 4.1777e-05 4.15668e-05 4.37881e-05 4.4152e-05 4.49098e-05 4.62252e-05 4.48248e-05 4.77028e-05
          4.2939e-05 4.83182e-05 3.82407e-05 4.74153e-05 2.9377e-05 4.34998e-05 1.61599e-05 3.35534e-05 4.05361e-06 1.424e-05 5.14509e-07 5.14509e-07
          5.14509e-07 5.14507e-07 5.14509e-07 5.14514e-07 5.14528e-07 5.14569e-07 5.14679e-07 5.14979e-07 5.15796e-07 5.18019e-07 5.24045e-07 5.4022e-07
          5.82639e-07 6.88356e-07 9.35057e-07 1.47088e-06 2.51279e-06 4.30028e-06 6.98448e-06 1.05334e-05 1.4734e-05 1.9277e-05 2.38605e-05 2.82606e-05
          3.23594e-05 3.61437e-05 3.96956e-05 4.31892e-05 4.69009e-05 5.12639e-05 5.70423e-05 6.57566e-05 8.11352e-05 0.000116345 0.000279002 0.0596393
          5.14509e-07 5.14507e-07 5.14508e-07 5.14512e-07 5.14523e-07 5.14554e-07 5.14636e-07 5.14859e-07 5.15454e-07 5.17047e-07 5.21287e-07 5.32472e-07
          5.61456e-07 6.33761e-07 8.03031e-07 1.1769e-06 1.9265e-06 3.26289e-06 5.35997e-06 8.25565e-06 1.1818e-05 1.57958e-05 1.99085e-05 2.39242e-05
          2.77006e-05 3.11953e-05 3.44612e-05 3.76434e-05 4.0994e-05 4.49272e-05 5.01659e-05 5.81415e-05 7.23375e-05 0.000104968 0.000257845 0.0586746
          5.14509e-07 5.14507e-07 5.14507e-07 5.1451e-07 5.14518e-07 5.14539e-07 5.14595e-07 5.14743e-07 5.15133e-07 5.16154e-07 5.18813e-07 5.25677e-07
          5.43149e-07 5.86471e-07 6.88639e-07 9.15457e-07 1.38573e-06 2.26226e-06 3.71315e-06 5.83286e-06 8.57998e-06 1.17821e-05 1.51956e-05 1.85782e-05
          2.17389e-05 2.45575e-05 2.69785e-05 2.89923e-05 3.06062e-05 3.18051e-05 3.24853e-05 3.23192e-05 3.04484e-05 2.47964e-05 1.16433e-05 5.14509e-07
          5.14509e-07 5.14507e-07 5.14507e-07 5.14508e-07 5.14513e-07 5.14527e-07 5.14562e-07 5.14652e-07 5.14884e-07 5.15478e-07 5.16989e-07 5.20795e-07
          5.30272e-07 5.53427e-07 6.0814e-07 7.3036e-07 9.88735e-07 1.49287e-06 2.37636e-06 3.75504e-06 5.66397e-06 8.02352e-06 1.06567e-05 1.33403e-05
          1.58574e-05 1.80298e-05 1.97248e-05 2.08428e-05 2.12903e-05 2.09452e-05 1.9618e-05 1.70306e-05 1.28982e-05 7.42515e-06 2.41188e-06 5.14509e-07
          5.14509e-07 5.14507e-07 5.14506e-07 5.14507e-07 5.1451e-07 5.14518e-07 5.14538e-07 5.14589e-07 5.14716e-07 5.15036e-07 5.15827e-07 5.17773e-07
          5.22503e-07 5.33833e-07 5.60382e-07 6.20294e-07 7.47926e-07 1.0055e-06 1.48394e-06 2.28457e-06 3.48346e-06 5.08461e-06 6.99914e-06 9.06207e-06
          1.10731e-05 1.28386e-05 1.41981e-05 1.50309e-05 1.52473e-05 1.47715e-05 1.35286e-05 1.14623e-05 8.63517e-06 5.29899e-06 2.19567e-06 5.14509e-07
          5.14509e-07 5.14507e-07 5.14506e-07 5.14506e-07 5.14508e-07 5.14512e-07 5.14523e-07 5.1455e-07 5.14616e-07 5.14778e-07 5.15169e-07 5.16109e-07
          5.18342e-07 5.23585e-07 5.35697e-07 5.63051e-07 6.22521e-07 7.44707e-07 9.82854e-07 1.41176e-06 2.11138e-06 3.13783e-06 4.48519e-06 6.0685e-06
          7.73896e-06 9.32266e-06 1.06632e-05 1.16518e-05 1.22407e-05 1.24437e-05 1.2333e-05 1.20094e-05 1.14663e-05 1.04838e-05 7.94481e-06 5.14509e-07
          5.14509e-07 5.14506e-07 5.14506e-07 5.14506e-07 5.14507e-07 5.14509e-07 5.14515e-07 5.14528e-07 5.14562e-07 5.14642e-07 5.14832e-07 5.1528e-07
          5.16326e-07 5.18743e-07 5.24269e-07 5.36722e-07 5.64218e-07 6.22827e-07 7.41266e-07 9.69083e-07 1.37595e-06 2.03611e-06 2.99972e-06 4.25493e-06
          5.71408e-06 7.23597e-06 8.67391e-06 9.92466e-06 1.09623e-05 1.18577e-05 1.27959e-05 1.4134e-05 1.66667e-05 2.2661e-05 4.52075e-05 0.0396044
          5.14509e-07 5.14506e-07 5.14506e-07 5.14506e-07 5.14506e-07 5.14507e-07 5.14511e-07 5.14518e-07 5.14537e-07 5.1458e-07 5.14681e-07 5.14917e-07
          5.15462e-07 5.16714e-07 5.19572e-07 5.2605e-07 5.40583e-07 5.72611e-07 6.40793e-07 7.78403e-07 1.04317e-06 1.5122e-06 2.26133e-06 3.32463e-06
          4.65743e-06 6.13879e-06 7.61346e-06 8.9448e-06 1.00477e-05 1.08918e-05 1.148e-05 1.18072e-05 1.17818e-05 1.10193e-05 8.27697e-06 5.14509e-07
          5.14509e-07 5.14506e-07 5.14506e-07 5.14506e-07 5.14506e-07 5.14507e-07 5.14509e-07 5.14515e-07 5.14529e-07 5.14562e-07 5.14639e-07 5.14817e-07
          5.15227e-07 5.16169e-07 5.18325e-07 5.23242e-07 5.34382e-07 5.59306e-07 6.13618e-07 7.26202e-07 9.48655e-07 1.35791e-06 2.03674e-06 3.03444e-06
          4.32101e-06 5.78066e-06 7.25e-06 8.57127e-06 9.62407e-06 1.03226e-05 1.05816e-05 1.02574e-05 9.06466e-06 6.55676e-06 2.82091e-06 5.14509e-07
        </DataArray>
        <DataArray type="Float32" Name="relativePerm_nonwetting" NumberOfComponents="1" format="ascii">
          0.992139 0.992139 0.992139 0.992139 0.992139 0.992139 0.992139 0.992139 0.992139 0.992139 0.992139 0.992139
          0.992138 0.992138 0.992136 0.992136 0.99213 0.99213 0.992113 0.992114 0.992066 0.992071 0.991942 0.991956
          0.991626 0.991664 0.990916 0.991002 0.98954 0.989706 0.987318 0.98758 0.984302 0.984656 0.980737 0.981161
          0.97695 0.977415 0.973239 0.97372 0.969814 0.97029 0.966789 0.967245 0.964202 0.964626 0.962043 0.962421
          0.960277 0.960592 0.958866 0.959089 0.95778 0.957861 0.957011 0.956874 0.956591 0.956107 0.956623 0.955574
          0.957332 0.955355 0.959189 0.955677 0.963119 0.957119 0.970679 0.961187 0.982739 0.972068 0.992139 0.992139
          0.992139 0.992139 0.992139 0.992139 0.992139 0.992139 0.992138 0.992137 0.992132 0.992119 0.992084 0.991992
          0.991759 0.99122 0.990136 0.988279 0.985622 0.982345 0.978743 0.975118 0.9717 0.968626 0.965949 0.963663
          0.961724 0.960063 0.9586 0.957237 0.955862 0.954329 0.952417 0.949748 0.945528 0.937452 0.912587 0.403589
          0.992139 0.992139 0.992139 0.992139 0.992139 0.992139 0.992139 0.992137 0.992134 0.992125 0.9921 0.992036
          0.991874 0.991492 0.990691 0.989234 0.987009 0.984113 0.980792 0.977336 0.973995 0.970934 0.968235 0.965914
          0.963941 0.962258 0.960788 0.959435 0.958085 0.956585 0.954707 0.952067 0.947875 0.939872 0.91518 0.406507
          0.992139 0.992139 0.992139 0.992139 0.992139 0.992139 0.992139 0.992138 0.992136 0.99213 0.992114 0.992075
          0.991976 0.991739 0.991219 0.990215 0.988542 0.986187 0.983309 0.98016 0.976999 0.974026 0.971363 0.969067
          0.967144 0.96557 0.964305 0.963305 0.962534 0.961977 0.961667 0.961742 0.962608 0.965442 0.974143 0.992139
          0.992139 0.992139 0.992139 0.992139 0.992139 0.992139 0.992139 0.992138 0.992137 0.992134 0.992125 0.992103
          0.992049 0.991919 0.991624 0.991021 0.989924 0.988213 0.985925 0.983237 0.980382 0.977583 0.975007 0.972758
          0.970891 0.969421 0.968348 0.967671 0.967406 0.96761 0.968414 0.970083 0.973108 0.978239 0.985845 0.992139
          0.992139 0.992139 0.992139 0.992139 0.992139 0.992139 0.992139 0.992139 0.992138 0.992136 0.992132 0.99212
          0.992093 0.992028 0.99188 0.991561 0.990939 0.98986 0.988239 0.986135 0.983711 0.981176 0.978726 0.976512
          0.974637 0.973156 0.972099 0.971483 0.971326 0.971672 0.972611 0.974298 0.976943 0.980876 0.986344 0.992139
          0.992139 0.992139 0.992139 0.992139 0.992139 0.992139 0.992139 0.992139 0.992139 0.992138 0.992135 0.99213
          0.992117 0.992087 0.992018 0.991866 0.991549 0.990954 0.989947 0.988461 0.986546 0.984349 0.982058 0.979857
          0.977891 0.976256 0.975001 0.974136 0.973643 0.973476 0.973566 0.973835 0.974295 0.975163 0.977667 0.992139
          0.992139 0.992139 0.992139 0.992139 0.992139 0.992139 0.992139 0.992139 0.992139 0.992138 0.992137 0.992135
          0.992129 0.992115 0.992083 0.992012 0.991859 0.991548 0.99097 0.990001 0.988573 0.986732 0.984616 0.982416
          0.980316 0.978453 0.976903 0.975679 0.974734 0.973962 0.97319 0.972148 0.970329 0.966616 0.956481 0.474441
          0.992139 0.992139 0.992139 0.992139 0.992139 0.992139 0.992139 0.992139 0.992139 0.992139 0.992138 0.992137
          0.992134 0.992126 0.99211 0.992073 0.99199 0.991813 0.991456 0.990801 0.989717 0.988155 0.986189 0.983999
          0.981797 0.979768 0.978029 0.976629 0.975564 0.974797 0.974283 0.974004 0.974026 0.974684 0.977314 0.992139
          0.992139 0.992139 0.992139 0.992139 0.992139 0.992139 0.992139 0.992139 0.992139 0.992139 0.992139 0.992137
          0.992135 0.99213 0.992117 0.992089 0.992025 0.991886 0.991596 0.99104 0.990082 0.988631 0.98673 0.984548
          0.982312 0.980228 0.978437 0.977008 0.975964 0.97531 0.975074 0.97537 0.97651 0.979251 0.984973 0.992139
        </DataArray>
        <DataArray type="Float32" Name="porosity" NumberOfComponents="1" format="ascii">
          0.4 0.4 0.4 0.4 0.4 0.4 0.4 0.4 0.4 0.4 0.4 0.4
          0.4 0.4 0.4 0.4 0.4 0.4 0.4 0.4 0.4 0.4 0.4 0.4