<?xml version="1.0"?>
<VTKFile type="UnstructuredGrid" version="0.1" byte_order="LittleEndian">
  <UnstructuredGrid>
    <Piece NumberOfCells="1400" NumberOfPoints="1491">
      <PointData Scalars="pressure_wetting">
        <DataArray type="Float32" Name="pressure_wetting" NumberOfComponents="1" format="ascii">
          99997.2 99997.2 99994.4 99994.4 100000 100000 99991.6 99991.6 99988.8 99988.8 99986 99986
          99983.1 99983.1 99980.3 99980.3 99977.5 99977.5 99974.7 99974.7 99988.8 99986 99983.1 99980.3
          99977.5 99974.7 99977.5 99974.7 99980.3 99983.1 99986 99988.8 99991.6 99991.6 99994.4 99994.4
          99997.2 100000 99997.2 100000 99991.6 99988.8 99994.4 99997.2 100000 100000 99997.2 99994.4
          99991.6 99988.8 99986 99986 99983.1 99983.1 99980.3 99980.3 99977.5 99977.5 99974.7 99974.7
          99966.3 99966.3 99963.5 99963.5 99969.1 99969.1 99971.9 99971.9 99971.9 99969.1 99966.3 99963.5
          99960.7 99960.7 99957.9 99957.9 99955 99955 99952.2 99952.2 99949.4 99949.4 99955 99952.2
          99949.4 99957.9 99960.7 99952.2 99949.4 99955 99957.9 99952.2 99949.4 99955 99957.8 99960.7
          99960.7 99963.5 99963.5 99966.3 99969.1 99971.9 99971.9 99969.1 99966.3 99971.9 99969.1 99966.3
          99963.5 99960.7 99957.8 99952.2 99949.4 99955 99946.6 99946.6 99943.8 99943.8 99941 99941
          99938.1 99938.1 99946.6 99943.8 99946.6 99943.8 99941 99941 99938.1 99938.1 99935.3 99935.3
          99932.5 99932.5 99935.3 99932.5 99929.7 99929.7 99926.8 99926.9 99929.7 99926.8 99935.3 99932.5
          99929.7 99926.8 99924 99924 99921.2 99921.2 99915.5 99915.5 99912.6 99912.6 99918.3 99918.3
          99909.8 99909.8 99906.9 99906.9 99904.1 99904.1 99901.2 99901.2 99912.7 99909.8 99906.9 99904.1
          99901.2 99904.1 99901.2 99907 99909.8 99912.7 99915.5 99915.5 99918.3 99918.4 99921.2 99921.2
          99924 99924 99926.9 99924 99921.2 99918.4 99915.5 99912.7 99904.1 99901.3 99907 99909.9
          99907 99904.2 99901.3 99909.9 99912.7 99921.2 99918.4 99915.6 99926.9 99924.1 99929.7 99929.7
          99932.5 99932.5 99938.1 99938.2 99935.3 99935.3 99941 99943.8 99946.6 99943.8 99941 99946.6
          99949.4 99946.6 99943.8 99941 99938.2 99949.4 99946.6 99943.8 99949.4 99946.6 99943.8 99941
          99941 99938.2 99938.2 99935.4 99935.4 99932.5 99932.5 99935.4 99932.6 99929.7 99929.8 99926.9
          99926.9 99929.7 99926.9 99924.1 99921.2 99915.6 99912.8 99918.4 99909.9 99907.1 99904.2 99901.4
          99912.8 99910 99907.1 99904.3 99901.5 99904.4 99901.5 99907.2 99910 99912.8 99915.6 99915.7
          99918.5 99918.5 99921.3 99921.3 99924.1 99924.1 99927 99924.1 99921.3 99918.5 99915.7 99912.9
          99904.4 99901.6 99907.3 99910.1 99907.3 99904.5 99901.7 99910.1 99912.9 99921.4 99918.6 99915.7
          99927 99924.2 99929.8 99929.8 99932.6 99932.6 99938.2 99938.2 99935.4 99935.4 99941 99943.8
          99946.6 99949.4 99943.8 99941 99946.6 99949.5 99957.9 99957.9 99955.1 99955.1 99952.3 99952.3
          99963.5 99963.5 99960.7 99960.7 99966.3 99966.3 99969.1 99969.1 99974.7 99974.7 99971.9 99971.9
          99966.3 99963.5 99969.1 99971.9 99974.7 99960.7 99957.9 99955.1 99952.2 99952.2 99955.1 99957.9
          99960.7 99963.5 99963.5 99960.7 99957.9 99955 99952.2 99966.3 99969.1 99971.9 99974.7 99974.7
          99971.9 99969.1 99966.3 99977.5 99977.5 99980.3 99980.3 99983.1 99983.1 99986 99986 99988.8
          99988.8 99988.8 99986 99983.1 99980.3 99977.5 99991.6 99994.4 99997.2 100000 100000 99997.2
          99994.4 99991.6 99991.6 99994.4 99997.2 100000 100000 99997.2 99994.4 99991.6 99988.8 99977.5
          99980.3 99986 99983.2 99980.3 99977.5 99983.2 99986 99988.8 99994.4 99991.6 100000 99997.2
          100000 99997.2 99994.4 99991.6 99988.8 100000 99997.2 99994.4 100000 99997.2 99994.4 99991.6
          99991.6 99988.8 99988.8 99986 99986 99983.2 99983.2 99980.3 99980.4 99986 99983.2 99980.4
          99977.5 99977.5 99974.7 99974.7 99977.5 99974.7 99971.9 99969.1 99966.3 99963.5 99960.7 99957.9
          99952.3 99949.5 99955.1 99963.5 99960.7 99957.9 99955.1 99952.3 99949.5 99952.3 99949.5 99955.1
          99957.9 99960.7 99963.5 99966.3 99966.3 99969.1 99969.1 99971.9 99971.9 99974.7 99971.9 99969.1
          99966.3 99963.5 99955.1 99952.3 99949.5 99957.9 99960.7 99957.9 99955.1 99952.3 99949.5 99960.7
          99963.5 99969.1 99966.3 99974.7 99971.9 99977.5 99977.5 99980.4 99980.4 99988.8 99988.8 99986
          99986 99983.2 99983.2 99991.6 99994.4 99997.2 100000 99994.4 99991.6 99997.2 100000 99997.2
          99994.4 100000 99991.6 99988.8 99986 99983.2 99980.4 99977.5 99974.7 99988.8 99986 99983.2
          99980.4 99977.5 99974.7 99977.5 99974.7 99980.4 99983.2 99986 99988.8 99991.6 99991.6 99994.4
          99994.4 99997.2 100000 99997.2 100000 99991.6 99988.8 99994.4 99997.2 100000 100000 99997.2
          99994.4 99991.6 99988.8 99986 99986 99983.2 99983.2 99980.4 99980.4 99977.5 99977.5 99974.7
          99974.7 99966.3 99966.3 99963.5 99963.5 99969.1 99969.1 99971.9 99971.9 99971.9 99969.1 99966.3
          99963.5 99960.7 99960.7 99957.9 99957.9 99955.1 99955.1 99952.3 99952.3 99949.5 99949.5 99955.1
          99952.3 99949.5 99957.9 99960.7 99952.3 99949.5 99955.1 99957.9 99952.3 99949.5 99955.1 99957.9
          99960.7 99960.7 99963.5 99963.5 99966.3 99969.1 99971.9 99971.9 99969.1 99966.3 99946.7 99946.7
          99943.9 99943.9 99941.1 99941.1 99938.3 99938.3 99935.5 99935.5 99932.7 99932.7 99929.9 99929.9
          99927.1 99927.1 99938.3 99935.5 99932.7 99929.9 99927.1 99929.9 99927.1 99932.7 99935.5 99938.3
          99941.1 99941.1 99943.9 99943.9 99946.7 99946.7 99941.1 99938.3 99943.9 99946.7 99946.7 99943.9
          99941.1 99938.3 99935.5 99935.5 99932.7 99932.7 99929.9 99929.9 99927.1 99927.1 99916 99916
          99913.2 99913.2 99918.8 99918.8 99921.5 99921.6 99924.3 99924.3 99924.3 99921.6 99918.8 99916
          99913.2 99910.5 99910.5 99907.7 99907.7 99904.9 99904.9 99902.2 99902.2 99904.9 99902.2 99907.7
          99910.4 99904.9 99902.1 99907.7 99904.9 99902.1 99907.6 99910.4 99910.4 99913.2 99913.2 99916
          99918.8 99921.5 99924.3 99924.3 99921.5 99918.7 99915.9 99924.3 99921.5 99918.7 99915.9 99913.1
          99910.4 99907.6 99904.8 99902 99904.8 99902 99907.5 99913.1 99910.3 99904.7 99901.9 99907.5
          99910.3 99913.1 99915.9 99915.9 99921.5 99921.5 99918.7 99918.7 99924.2 99924.3 99927 99927.1
          99932.7 99929.9 99938.3 99935.5 99941.1 99943.9 99946.7 99941.1 99938.3 99943.9 99946.7 99935.5
          99932.6 99929.9 99929.8 99927 99932.6 99929.8 99927 99932.6 99935.4 99935.4 99938.2 99938.2
          99941 99943.9 99946.7 99946.7 99943.8 99941 99924.2 99921.4 99915.8 99913 99918.6 99924.2
          99921.4 99918.6 99915.8 99913 99910.2 99910.2 99907.4 99907.4 99904.6 99901.9 99904.6 99901.8
          99898.9 99899 99896.1 99896.2 99893.3 99893.4 99890.5 99890.6 99899.1 99896.3 99899.1 99896.4
          99893.5 99893.6 99890.7 99890.8 99887.8 99888 99885 99885.2 99882.2 99882.4 99888.1 99885.3
          99882.6 99879.7 99879.9 99876.9 99877.2 99879.5 99876.7 99884.8 99882 99887.6 99879.2 99876.4
          99873.6 99873.9 99870.8 99871.2 99868 99868.4 99865.2 99865.7 99862.4 99863 99859.7 99860.2
          99854.1 99854.9 99851.4 99852.3 99856.9 99857.6 99866.1 99863.4 99860.8 99858.2 99855.6 99853.1
          99856.3 99853.9 99858.8 99861.3 99863.9 99866.5 99868.8 99869.1 99871.5 99871.8 99874.2 99874.5
          99877.4 99874.7 99872.1 99869.5 99866.9 99859.3 99856.9 99854.5 99861.8 99864.3 99862.2 99859.8
          99857.4 99855.1 99864.7 99867.2 99872.3 99869.7 99877.6 99874.9 99880.1 99880.2 99882.8 99882.9
          99891 99891.1 99888.2 99888.3 99885.5 99885.6 99893.7 99896.5 99899.2 99896.5 99893.8 99899.3
          99899.3 99896.6 99893.9 99891.1 99888.4 99885.7 99883.1 99880.4 99877.8 99891.2 99888.5 99885.8
          99883.2 99880.5 99877.9 99880.6 99878 99883.2 99885.9 99888.6 99891.3 99893.9 99894 99896.7
          99896.7 99899.4 99899.4 99894 99891.3 99896.7 99899.4 99899.5 99896.7 99894 99891.3 99888.6
          99888.6 99885.9 99885.9 99883.3 99883.3 99880.6 99880.7 99878 99878 99870.3 99870.4 99867.8
          99867.9 99872.8 99872.9 99875.4 99875.5 99875.5 99872.9 99870.4 99867.9 99865.5 99865.5 99863.1
          99863.2 99860.8 99860.8 99858.5 99858.6 99856.4 99856.4 99860.7 99858.4 99856.2 99863 99865.4
          99858.2 99855.9 99860.5 99862.8 99857.8 99855.6 99860.1 99862.5 99865 99865.2 99867.5 99867.7
          99870.2 99872.7 99875.3 99875.1 99872.5 99870 99852.9 99853.4 99850.7 99851.2 99848.6 99849.2
          99846.6 99847.2 99844.7 99845.3 99842.8 99843.5 99840.8 99841.5 99838.7 99839.4 99847.8 99846
          99844.2 99842.5 99840.7 99843.5 99842.2 99844.9 99846.5 99848.3 99849.7 99850.1 99851.7 99852
          99853.8 99854.1 99850.3 99848.6 99852.2 99854.3 99854.3 99852.3 99850.4 99848.7 99846.9 99847.1
          99845.5 99845.6 99844.2 99844.5 99843.4 99843.8 99841.2 99850.2 99844.5 99859.1 99840.2 99845.7
          99840.4 99843.6 99841.1 99843 99843.8 99844.8 99847.7 99853.5 99864.1 99875 99881.9 99901.8
          99910 99943.7 99950.2 100000 100000 99917.8 100000 99873.4 99853.1 99851.1 100000 99816.8
          99808.4 99766.8 99794.1 99781 99816.1 99803.5 99822.9 99828.9 99833.3 99836.3 99838.7 99836.8
          99833.3 99828 99819 99836.2 99832.8 99827.6 99818.8 99803.4 99781.7 99796.9 99810.1 99768.6
          99851.9 100000 99817.3 99822.5 99816.1 99918.2 100000 99873.8 99853.2 99843.9 99839.8 99828.1
          99837.6 99834.8 99838.1 99832 99837.9 99836.9 99838.7 99838.7 99842.1 99840.4 99845.9 99843.9
          99847.9 99850 99852.2 99847 99845 99849.2 99851.5 99843.1 99841.4 99839.9 99839 99838.2
          99840.3 99837.4 99836.7 99838.7 99840.5 99842 99842.6 99843.9 99846 99848.3 99850.7 99849.7
          99847.2 99844.8 99848.7 99846 99843.4 99841 99838.6 99836.5 99834.8 99833.8 99833.6 99837
          99835 99838.8 99846.1 99850.7 99858.9 99863.6 99838.7 99843 99838.2 99839.4 99842.4 99848.2
          99858.4 99883.8 99875.5 99913.3 99903 99944.6 100000 99952.9 100000 99879.3 99909.7 99950.8
          100000 99891.4 99937.9 100000 99843.7 99861.4 99834.1 99829.5 99827.9 99829.5 99828.2 99815.3
          99817.6 99818.4 99816.1 99821.3 99824.4 99826.8 99851 99903.9 100000 99821.2 100000 99775.5
          99772.7 99782 99746.2 99713.8 99716.9 99729.6 99688.9 99730.3 99688.9 99736.7 99705.7 99731.4
          99761.3 99771 99781.2 99787.6 99794.8 99799.4 99804.6 99808.1 99812.1 99814.9 99819.2 99814.1
          99808.1 99800.9 99792.1 99823.8 99827.6 99827.9 99830.9 99831.7 99834.1 99835.3 99837.2 99833.7
          99829.7 99825.3 99820.5 99818.3 99823.5 99828.1 99832.3 99836.3 99837.4 99840 99841 99843.6
          99844.4 99847 99847.7 99848.6 99845.4 99842.1 99838.8 99840.3 99843.4 99846.5 99849.5 99850.5
          99847.6 99844.7 99841.9 99839.1 99831.5 99833.9 99836.4 99853.3 99856.2 99859 99864.8 99861.9
          99852.5 99855.5 99858.4 99861.4 99864.3 99867.2 99867.6 99870.1 99870.5 99873 99873.3 99875.9
          99876.2 99881.8 99879 99890.3 99887.5 99884.7 99893.1 99896 99898.8 99893 99890.2 99895.9
          99898.7 99887.3 99884.5 99881.6 99878.8 99878.6 99875.6 99881.4 99878.4 99875.4 99881.3 99884.2
          99884.3 99887.1 99887.2 99890 99890.1 99892.9 99895.8 99898.6 99898.5 99895.7 99892.8 99898.5
          99895.6 99892.7 99889.8 99884 99881.1 99887 99878.2 99875.2 99872.2 99872.5 99869.2 99869.5
          99866.2 99866.5 99863.1 99863.5 99872.7 99869.8 99866.9 99863.9 99860.4 99860.9 99857.3 99857.9
          99854.8 99851.7 99854.2 99851 99860 99856.9 99853.6 99850.4 99849.8 99846.4 99853.2 99856.4
          99862.8 99859.7 99849.4 99845.9 99852.8 99856.1 99859.4 99862.6 99865.7 99865.9 99868.8 99869
          99871.9 99872 99874.9 99875 99881 99878 99889.8 99886.8 99883.9 99892.7 99895.5 99898.4
          99892.6 99889.7 99895.5 99898.4 99886.8 99883.8 99880.9 99877.9 99877.8 99874.8 99880.8 99877.8
          99874.7 99880.7 99883.7 99883.8 99886.7 99886.7 99889.6 99889.6 99892.5 99895.4 99898.3 99898.3
          99895.4 99892.5 99898.3 99895.4 99892.5 99889.6 99883.7 99880.7 99886.7 99877.7 99874.7 99871.6
          99871.7 99868.6 99868.6 99865.4 99865.5 99862.2 99862.3 99871.7 99868.7 99865.5 99862.4 99859
          99859.2 99855.8 99855.9 99852.6 99849.1 99845.6 99852.4 99849 99845.4 99859 99855.7 99852.3
          99848.9 99845.4 99841.8 99841.8 99838 99838.1 99834.2 99834.3 99830.4 99830.4 99826.4 99826.4
          99822.6 99822.4 99818.8 99818.6 99815.5 99815 99830.5 99826.4 99822.2 99817.9 99813.6 99817.3
          99812.1 99822.1 99826.6 99830.8 99834.5 99834.8 99838.3 99838.7 99842 99842.4 99835.4 99831.4
          99839.2 99842.9 99827.1 99822.4 99817.3 99811.3 99783.5 99766.8 99774 99742.4 99792.2 99783.4
          99799.7 99795.3 99806.3 99804.2 99710.9 99716.3 99729.5 99688.8 99818.5 100000 99770.5 99765.9
          99899.2 100000 99842.3 99930.2 100000 99877.7 99843.8 99815.4 99824.3 99804.5 99801.6 99802.6
          99805.5 99809.4 99811.9 99810.1 99810.4 99814.3 99812.9 99811.8 99813.2 99818.8 99830.9 99852.9
          99888 99938.2 100000
        </DataArray>
        <DataArray type="Float32" Name="pressure_nonwetting" NumberOfComponents="1" format="ascii">
          100960 100960 100958 100958 100963 100963 100955 100955 100952 100952 100949 100949
          100946 100946 100943 100943 100941 100941 100938 100938 100952 100949 100946 100943
          100941 100938 100941 100938 100943 100946 100949 100952 100955 100955 100958 100958
          100960 100963 100960 100963 100955 100952 100958 100960 100963 100963 100960 100958
          100955 100952 100949 100949 100946 100946 100943 100943 100941 100941 100938 100938
          100929 100929 100927 100927 100932 100932 100935 100935 100935 100932 100929 100927
          100924 100924 100921 100921 100918 100918 100915 100915 100913 100913 100918 100915
          100913 100921 100924 100915 100913 100918 100921 100915 100913 100918 100921 100924
          100924 100927 100927 100929 100932 100935 100935 100932 100929 100935 100932 100929
          100927 100924 100921 100915 100913 100918 100910 100910 100907 100907 100904 100904
          100901 100901 100910 100907 100910 100907 100904 100904 100901 100901 100898 100898
          100896 100896 100898 100896 100893 100893 100890 100890 100893 100890 100898 100896
          100893 100890 100887 100887 100884 100884 100879 100879 100876 100876 100881 100881
          100873 100873 100870 100870 100867 100867 100864 100864 100876 100873 100870 100867
          100864 100867 100864 100870 100873 100876 100879 100879 100881 100881 100884 100884
          100887 100887 100890 100887 100884 100882 100879 100876 100867 100864 100870 100873
          100870 100867 100864 100873 100876 100884 100882 100879 100890 100887 100893 100893
          100896 100896 100901 100901 100898 100898 100904 100907 100910 100907 100904 100910
          100913 100910 100907 100904 100901 100913 100910 100907 100913 100910 100907 100904
          100904 100901 100901 100898 100898 100896 100896 100899 100896 100893 100893 100890
          100890 100893 100890 100887 100884 100879 100876 100882 100873 100870 100867 100865
          100876 100873 100870 100867 100865 100868 100865 100870 100873 100876 100879 100879
          100882 100882 100884 100884 100887 100887 100890 100887 100884 100882 100879 100876
          100868 100865 100870 100873 100870 100868 100865 100873 100876 100884 100882 100879
          100890 100887 100893 100893 100896 100896 100901 100901 100899 100899 100904 100907
          100910 100913 100907 100904 100910 100913 100921 100921 100918 100918 100915 100915
          100927 100927 100924 100924 100929 100929 100932 100932 100938 100938 100935 100935
          100929 100927 100932 100935 100938 100924 100921 100918 100915 100915 100918 100921
          100924 100927 100927 100924 100921 100918 100915 100929 100932 100935 100938 100938
          100935 100932 100929 100941 100941 100943 100943 100946 100946 100949 100949 100952
          100952 100952 100949 100946 100943 100941 100955 100958 100960 100963 100963 100960
          100958 100955 100955 100958 100960 100963 100963 100960 100958 100955 100952 100941
          100943 100949 100946 100943 100941 100946 100949 100952 100958 100955 100963 100960
          100963 100960 100958 100955 100952 100963 100960 100958 100963 100960 100958 100955
          100955 100952 100952 100949 100949 100946 100946 100943 100943 100949 100946 100943
          100941 100941 100938 100938 100941 100938 100935 100932 100929 100927 100924 100921
          100915 100913 100918 100927 100924 100921 100918 100915 100913 100915 100913 100918
          100921 100924 100927 100929 100929 100932 100932 100935 100935 100938 100935 100932
          100929 100927 100918 100915 100913 100921 100924 100921 100918 100915 100913 100924
          100927 100932 100929 100938 100935 100941 100941 100943 100943 100952 100952 100949
          100949 100946 100946 100955 100958 100960 100963 100958 100955 100960 100963 100960
          100958 100963 100955 100952 100949 100946 100943 100941 100938 100952 100949 100946
          100943 100941 100938 100941 100938 100943 100946 100949 100952 100955 100955 100958
          100958 100960 100963 100960 100963 100955 100952 100958 100960 100963 100963 100960
          100958 100955 100952 100949 100949 100946 100946 100943 100943 100941 100941 100938
          100938 100929 100929 100927 100927 100932 100932 100935 100935 100935 100932 100929
          100927 100924 100924 100921 100921 100918 100918 100915 100915 100913 100913 100918
          100915 100913 100921 100924 100915 100913 100918 100921 100915 100913 100918 100921
          100924 100924 100927 100927 100929 100932 100935 100935 100932 100929 100910 100910
          100907 100907 100904 100904 100901 100901 100899 100899 100896 100896 100893 100893
          100890 100890 100901 100899 100896 100893 100890 100893 100890 100896 100899 100901
          100904 100904 100907 100907 100910 100910 100904 100901 100907 100910 100910 100907
          100904 100901 100899 100899 100896 100896 100893 100893 100890 100890 100879 100879
          100876 100876 100882 100882 100885 100885 100887 100887 100887 100885 100882 100879
          100876 100874 100874 100871 100871 100868 100868 100865 100865 100868 100865 100871
          100874 100868 100865 100871 100868 100865 100871 100874 100874 100876 100876 100879
          100882 100885 100887 100887 100885 100882 100879 100887 100885 100882 100879 100876
          100873 100871 100868 100865 100868 100865 100871 100876 100873 100868 100865 100871
          100873 100876 100879 100879 100885 100885 100882 100882 100887 100887 100890 100890
          100896 100893 100901 100899 100904 100907 100910 100904 100901 100907 100910 100899
          100896 100893 100893 100890 100896 100893 100890 100896 100899 100899 100901 100901
          100904 100907 100910 100910 100907 100904 100887 100885 100879 100876 100882 100887
          100885 100882 100879 100876 100873 100873 100871 100871 100868 100865 100868 100865
          100862 100862 100859 100859 100856 100857 100854 100854 100862 100859 100862 100860
          100857 100857 100854 100854 100851 100851 100848 100848 100845 100846 100851 100848
          100846 100843 100843 100840 100840 100843 100840 100848 100845 100851 100842 100840
          100837 100837 100834 100834 100831 100832 100828 100829 100826 100826 100823 100823
          100817 100818 100815 100815 100820 100821 100829 100827 100824 100821 100819 100816
          100819 100817 100822 100824 100827 100830 100832 100832 100835 100835 100837 100838
          100841 100838 100835 100833 100830 100822 100820 100818 100825 100827 100825 100823
          100821 100818 100828 100830 100835 100833 100841 100838 100843 100843 100846 100846
          100854 100854 100851 100851 100849 100849 100857 100860 100862 100860 100857 100862
          100862 100860 100857 100854 100852 100849 100846 100844 100841 100854 100852 100849
          100846 100844 100841 100844 100841 100846 100849 100852 100854 100857 100857 100860
          100860 100863 100863 100857 100854 100860 100863 100863 100860 100857 100854 100852
          100852 100849 100849 100846 100846 100844 100844 100841 100841 100833 100834 100831
          100831 100836 100836 100839 100839 100839 100836 100834 100831 100829 100829 100826
          100826 100824 100824 100822 100822 100820 100820 100824 100822 100819 100826 100829
          100821 100819 100824 100826 100821 100819 100823 100826 100828 100828 100831 100831
          100833 100836 100838 100838 100836 100833 100816 100816 100814 100814 100812 100812
          100810 100810 100808 100808 100806 100807 100804 100805 100802 100803 100811 100809
          100807 100806 100804 100807 100805 100808 100810 100811 100813 100813 100815 100815
          100817 100817 100813 100812 100815 100817 100817 100815 100814 100812 100810 100810
          100809 100809 100807 100808 100806 100807 100804 100813 100808 100822 100803 100809
          100804 100807 100804 100806 100807 100808 100811 100817 100827 100838 100845 100865
          100873 100907 100913 100963 100963 100880 100963 100836 100816 100801 100963 100775
          100536 100198 100674 100736 100779 100766 100786 100792 100796 100799 100802 100800
          100796 100791 100782 100799 100796 100791 100782 100766 100736 100674 100536 100198
          100801 100963 100775 100786 100778 100881 100963 100837 100816 100807 100803 100791
          100801 100798 100801 100795 100801 100800 100802 100802 100805 100804 100809 100807
          100811 100813 100815 100810 100808 100812 100815 100806 100804 100803 100802 100801
          100803 100800 100800 100802 100804 100805 100806 100807 100809 100811 100814 100813
          100810 100808 100812 100809 100807 100804 100802 100800 100798 100797 100797 100800
          100798 100802 100809 100814 100822 100827 100802 100806 100801 100803 100806 100811
          100822 100847 100839 100876 100866 100908 100963 100916 100963 100842 100873 100914
          100963 100855 100901 100963 100807 100825 100797 100793 100791 100793 100791 100778
          100781 100782 100779 100784 100788 100790 100814 100867 100963 100772 100963 100734
          100735 100745 100709 100669 100600 100469 100167 100389 100105 100551 100641 100693
          100724 100734 100744 100751 100758 100762 100768 100771 100775 100778 100782 100777
          100771 100764 100755 100787 100791 100791 100794 100795 100797 100798 100800 100797
          100793 100788 100784 100781 100787 100791 100795 100799 100801 100803 100804 100807
          100808 100810 100811 100812 100809 100805 100802 100803 100807 100810 100813 100814
          100811 100808 100805 100802 100795 100797 100800 100816 100819 100822 100828 100825
          100816 100819 100822 100825 100827 100830 100831 100833 100834 100836 100836 100839
          100839 100845 100842 100853 100851 100848 100856 100859 100862 100856 100853 100859
          100862 100850 100848 100845 100842 100842 100839 100845 100841 100839 100844 100847
          100847 100850 100850 100853 100853 100856 100859 100862 100862 100859 100856 100862
          100859 100856 100853 100847 100844 100850 100841 100838 100835 100836 100832 100833
          100829 100830 100826 100827 100836 100833 100830 100827 100824 100824 100820 100821
          100818 100815 100817 100814 100823 100820 100817 100814 100813 100810 100816 100820
          100826 100823 100813 100809 100816 100819 100823 100826 100829 100829 100832 100832
          100835 100835 100838 100838 100844 100841 100853 100850 100847 100856 100859 100862
          100856 100853 100859 100862 100850 100847 100844 100841 100841 100838 100844 100841
          100838 100844 100847 100847 100850 100850 100853 100853 100856 100859 100861 100861
          100859 100856 100861 100859 100856 100853 100847 100844 100850 100841 100838 100835
          100835 100832 100832 100829 100829 100825 100825 100835 100832 100829 100826 100822
          100822 100819 100819 100816 100812 100809 100816 100812 100809 100822 100819 100815
          100812 100809 100805 100805 100801 100801 100797 100797 100794 100794 100790 100790
          100786 100786 100782 100782 100779 100778 100794 100790 100785 100781 100777 100780
          100775 100785 100790 100794 100798 100798 100801 100802 100805 100806 100799 100795
          100802 100806 100790 100786 100780 100774 100747 100730 100737 100705 100755 100747
          100763 100758 100769 100767 100666 100598 100468 100167 100769 100963 100729 100728
          100862 100963 100805 100893 100963 100841 100807 100778 100787 100768 100765 100766
          100769 100773 100775 100773 100774 100777 100776 100775 100776 100782 100794 100816
          100851 100901 100963
        </DataArray>
        <DataArray type="Float32" Name="density_wetting" NumberOfComponents="1" format="ascii">
          1000 1000 1000 1000 1000 1000 1000 1000 1000 1000 1000 1000
          1000 1000 1000 1000 1000 1000 1000 1000 1000 1000 1000 1000
          1000 1000 1000 1000 1000 1000 1000 1000 1000 1000 1000 1000
          1000 1000 1000 1000 1000 1000 1000 1000 1000 1000 1000 1000
          1000 1000 1000 1000 1000 1000 1000 1000 1000 1000 1000 1000
          1000 1000 1000 1000 1000 1000 1000 1000 1000 1000 1000 1000
          1000 1000 1000 1000 1000 1000 1000 1000 1000 1000 1000 1000
          1000 1000 1000 1000 1000 1000 1000 1000 1000 1000 1000 1000
          1000 1000 1000 1000 1000 1000 1000 1000 1000 1000 1000 1000
          1000 1000 1000 1000 1000 1000 1000 1000 1000 1000 1000 1000
          1000 1000 1000 1000 1000 1000 1000 1000 1000 1000 1000 1000
          1000 1000 1000 1000 1000 1000 1000 1000 1000 1000 1000 1000
          1000 1000 1000 1000 1000 1000 1000 1000 1000 1000 1000 1000
          1000 1000 1000 1000 1000 1000 1000 1000 1000 1000 1000 1000
          1000 1000 1000 1000 1000 1000 1000 1000 1000 1000 1000 1000
          1000 1000 1000 1000 1000 1000 1000 1000 1000 1000 1000 1000
          1000 1000 1000 1000 1000 1000 1000 1000 1000 1000 1000 1000
          1000 1000 1000 1000 1000 1000 1000 1000 1000 1000 1000 1000
          1000 1000 1000 1000 1000 1000 1000 1000 1000 1000 1000 1000
          1000 1000 1000 1000 1000 1000 1000 1000 1000 1000 1000 1000
          1000 1000 1000 1000 1000 1000 1000 1000 1000 1000 1000 1000
          1000 1000 1000 1000 1000 1000 1000 1000 1000 1000 1000 1000
          1000 1000 1000 1000 1000 1000 1000 1000 1000 1000 1000 1000
          1000 1000 1000 1000 1000 1000 1000 1000 1000 1000 1000 1000
          1000 1000 1000 1000 1000 1000 1000 1000 1000 1000 1000 1000
          1000 1000 1000 1000 1000 1000 1000 1000 1000 1000 1000 1000
          1000 1000 1000 1000 1000 1000 1000 1000 1000 1000 1000 1000
          1000 1000 1000 1000 1000 1000 1000 1000 1000 1000 1000 1000
          1000 1000 1000 1000 1000 1000 1000 1000 1000 1000 1000 1000
          1000 1000 1000 1000 1000 1000 1000 1000 1000 1000 1000 1000
          1000 1000 1000 1000 1000 1000 1000 1000 1000 1000 1000 1000
          1000 1000 1000 1000 1000 1000 1000 1000 1000 1000 1000 1000
          1000 1000 1000 1000 1000 1000 1000 1000 1000 1000 1000 1000
          1000 1000 1000 1000 1000 1000 1000 1000 1000 1000 1000 1000
          1000 1000 1000 1000 1000 1000 1000 1000 1000 1000 1000 1000
          1000 1000 1000 1000 1000 1000 1000 1000 1000 1000 1000 1000
          1000 1000 1000 1000 1000 1000 1000 1000 1000 1000 1000 1000
          1000 1000 1000 1000 1000 1000 1000 1000 1000 1000 1000 1000
          1000 1000 1000 1000 1000 1000 1000 1000 1000 1000 1000 1000
          1000 1000 1000 1000 1000 1000 1000 1000 1000 1000 1000 1000
          1000 1000 1000 1000 1000 1000 1000 1000 1000 1000 1000 1000
          1000 1000 1000 1000 1000 1000 1000 1000 1000 1000 1000 1000
          1000 1000 1000 1000 1000 1000 1000 1000 1000 1000 1000 1000
          1000 1000 1000 1000 1000 1000 1000 1000 1000 1000 1000 1000
          1000 1000 1000 1000 1000 1000 1000 1000 1000 1000 1000 1000
          1000 1000 1000 1000 1000 1000 1000 1000 1000 1000 1000 1000
          1000 1000 1000 1000 1000 1000 1000 1000 1000 1000 1000 1000
          1000 1000 1000 1000 1000 1000 1000 1000 1000 1000 1000 1000
          1000 1000 1000 1000 1000 1000 1000 1000 1000 1000 1000 1000
          1000 1000 1000 1000 1000 1000 1000 1000 1000 1000 1000 1000
          1000 1000 1000 1000 1000 1000 1000 1000 1000 1000 1000 1000
          1000 1000 1000 1000 1000 1000 1000 1000 1000 1000 1000 1000
          1000 1000 1000 1000 1000 1000 1000 1000 1000 1000 1000 1000
          1000 1000 1000 1000 1000 1000 1000 1000 1000 1000 1000 1000
          1000 1000 1000 1000 1000 1000 1000 1000 1000 1000 1000 1000
          1000 1000 1000 1000 1000 1000 1000 1000 1000 1000 1000 1000
          1000 1000 1000 1000 1000 1000 1000 1000 1000 1000 1000 1000
          1000 1000 1000 1000 1000 1000 1000 1000 1000 1000 1000 1000
          1000 1000 1000 1000 1000 1000 1000 1000 1000 1000 1000 1000
          1000 1000 1000 1000 1000 1000 1000 1000 1000 1000 1000 1000
          1000 1000 1000 1000 1000 1000 1000 1000 1000 1000 1000 1000
          1000 1000 1000 1000 1000 1000 1000 1000 1000 1000 1000 1000
          1000 1000 1000 1000 1000 1000 1000 1000 1000 1000 1000 1000
          1000 1000 1000 1000 1000 1000 1000 1000 1000 1000 1000 1000
          1000 1000 1000 1000 1000 1000 1000 1000 1000 1000 1000 1000
          1000 1000 1000 1000 1000 1000 1000 1000 1000 1000 1000 1000
          1000 1000 1000 1000 1000 1000 1000 1000 1000 1000 1000 1000
          1000 1000 1000 1000 1000 1000 1000 1000 1000 1000 1000 1000
          1000 1000 1000 1000 1000 1000 1000 1000 1000 1000 1000 1000