<?xml version="1.0"?>
<VTKFile type="UnstructuredGrid" version="0.1" byte_order="LittleEndian">
  <UnstructuredGrid>
    <Piece NumberOfCells="1772" NumberOfPoints="1956">
      <CellData Scalars="pressure_wetting">
        <DataArray type="Float32" Name="pressure_wetting" NumberOfComponents="1" format="ascii">
          99739.9 99739.9 99724.1 99724.1 99713.6 99713.6 99724.1 99724.1 99713.6 99713.6 99697.9 99697.9
          99676.9 99676.9 99655.9 99655.9 99634.9 99634.9 99603.5 99739.9 99739.9 99724.1 99724.1 99713.6
          99713.6 99724.1 99724.1 99713.6 99713.6 99697.9 99697.9 99676.9 99676.9 99655.9 99655.9 99634.9
          99634.9 99603.5 99572.5 99572.5 99551.9 99551.9 99522.1 99484.6 99451.8 99425.4 99572.5 99572.5
          99551.9 99551.9 99522.1 99484.6 99451.8 99425.4 99739.9 99739.9 99724.1 99724.1 99713.6 99713.6
          99724.1 99724.1 99713.6 99713.6 99697.9 99697.9 99676.9 99676.9 99739.9 99739.9 99724.1 99724.1
          99713.6 99713.6 99724.1 99724.1 99713.6 99713.6 99697.9 99697.9 99676.9 99676.9 99655.9 99655.9
          99634.9 99634.9 99603.5 99655.9 99655.9 99634.9 99634.9 99603.5 99739.9 99739.9 99724.1 99724.1
          99713.6 99713.6 99724.1 99724.1 99713.6 99713.6 99697.9 99697.9 99676.9 99676.9 99655.9 99655.9
          99634.9 99634.9 99603.5 99572.5 99572.5 99551.9 99551.9 99522.1 99484.6 99572.5 99572.5 99551.9
          99551.9 99522.1 99484.6 99451.8 99425.4 99451.8 99425.4 99572.5 99572.5 99551.9 99551.9 99522.1
          99484.6 99451.8 99425.4 99406.1 99393.1 99384.9 99379.9 99406.1 99393.1 99384.9 99379.9 99376.9
          99375.2 99374.1 99373.5 99376.9 99375.2 99374.1 99373.5 99406.1 99393.1 99406.1 99393.1 99384.9
          99379.9 99384.9 99379.9 99406.1 99393.1 99384.9 99379.9 99376.9 99375.2 99376.9 99375.2 99374.1
          99373.5 99374.1 99373.5 99376.9 99375.2 99374.1 99373.5 99739.9 99739.9 99724.1 99724.1 99713.6
          99713.6 99724.1 99724.1 99713.6 99713.6 99697.9 99697.9 99676.9 99676.9 99655.9 99655.9 99634.9
          99634.9 99603.5 99739.9 99739.9 99724.1 99724.1 99713.6 99713.6 99724.1 99724.1 99713.6 99713.6
          99697.9 99697.9 99676.9 99676.9 99655.9 99655.9 99634.9 99634.9 99603.5 99572.5 99572.5 99551.9
          99551.9 99522.1 99484.6 99451.8 99425.4 99572.5 99572.5 99551.9 99551.9 99522.1 99484.6 99451.8
          99425.4 99739.9 99739.9 99724.1 99724.1 99713.6 99713.6 99724.1 99724.1 99713.6 99713.6 99697.9
          99697.9 99676.9 99676.9 99739.9 99739.9 99724.1 99724.1 99713.6 99713.6 99724.1 99724.1 99713.6
          99713.6 99697.9 99697.9 99676.9 99676.9 99655.9 99655.9 99634.9 99634.9 99603.5 99655.9 99655.9
          99634.9 99634.9 99603.5 99739.9 99739.9 99724.1 99724.1 99713.6 99713.6 99724.1 99724.1 99713.6
          99713.6 99697.9 99697.9 99676.9 99676.9 99655.9 99655.9 99634.9 99634.9 99603.5 99572.5 99572.5
          99551.9 99551.9 99522.1 99484.6 99572.5 99572.5 99551.9 99551.9 99522.1 99484.6 99451.8 99425.4
          99451.8 99425.4 99572.5 99572.5 99551.9 99551.9 99522.1 99484.6 99451.8 99425.4 99406.1 99393.1
          99384.9 99379.9 99406.1 99393.1 99384.9 99379.9 99376.9 99375.2 99374.1 99373.5 99376.9 99375.2
          99374.1 99373.5 99406.1 99393.1 99406.1 99393.1 99384.9 99379.9 99384.9 99379.9 99406.1 99393.1
          99384.9 99379.9 99376.9 99375.2 99376.9 99375.2 99374.1 99373.5 99374.1 99373.5 99376.9 99375.2
          99374.1 99373.5 99373.2 99372.9 99372.8 99372.7 99372.6 99373.2 99372.9 99372.8 99372.7 99372.6
          99372.5 99372.5 99372.4 99372.4 99372.5 99372.5 99372.4 99372.4 99373.2 99372.9 99372.8 99373.2
          99372.9 99372.8 99372.7 99372.6 99372.7 99372.6 99373.2 99372.9 99372.8 99372.7 99372.6 99372.5
          99372.5 99372.5 99372.5 99372.4 99372.4 99372.4 99372.4 99372.5 99372.5 99372.4 99372.4 99372.3
          99372.2 99372.2 99372.1 99372.1 99372.3 99372.2 99372.2 99372.1 99372.1 99372 99372 99371.9
          99371.9 99372 99372 99371.9 99371.9 99372.3 99372.2 99372.3 99372.2 99372.2 99372.1 99372.1
          99372.2 99372.1 99372.1 99372.3 99372.2 99372.2 99372.1 99372.1 99372 99372 99372 99372
          99371.9 99371.9 99372 99371.9 99372 99372 99372 99371.9 99373.2 99372.9 99372.8 99372.7
          99372.6 99373.2 99372.9 99372.8 99372.7 99372.6 99372.5 99372.5 99372.4 99372.4 99372.5 99372.5
          99372.4 99372.4 99373.2 99372.9 99372.8 99373.2 99372.9 99372.8 99372.7 99372.6 99372.7 99372.6
          99373.2 99372.9 99372.8 99372.7 99372.6 99372.5 99372.5 99372.5 99372.5 99372.4 99372.4 99372.4
          99372.4 99372.5 99372.5 99372.4 99372.4 99372.3 99372.2 99372.2 99372.1 99372.1 99372.3 99372.2
          99372.2 99372.1 99372.1 99372 99372 99372 99371.9 99372 99372 99372 99371.9 99372.3
          99372.2 99372.3 99372.2 99372.2 99372.1 99372.1 99372.2 99372.1 99372.1 99372.3 99372.2 99372.2
          99372.1 99372.1 99372 99372 99372 99372 99371.9 99371.9 99371.9 99371.9 99372 99372
          99371.9 99371.9 99739.9 99739.9 99724.1 99724.1 99713.6 99713.6 99724.1 99724.1 99713.6 99713.6
          99697.9 99697.9 99676.9 99676.9 99655.9 99655.9 99634.9 99634.9 99603.5 99739.9 99739.9 99724.1
          99724.1 99713.6 99713.6 99724.1 99724.1 99713.6 99713.6 99697.9 99697.9 99676.9 99676.9 99655.9
          99655.9 99634.9 99634.9 99603.5 99572.5 99572.5 99551.9 99551.9 99522.1 99484.6 99451.8 99425.4
          99572.5 99572.5 99551.9 99551.9 99522.1 99484.6 99451.8 99425.4 99739.9 99739.9 99724.1 99724.1
          99713.6 99713.6 99724.1 99724.1 99713.6 99713.6 99697.9 99697.9 99676.9 99676.9 99739.9 99739.9
          99724.1 99724.1 99713.6 99713.6 99724.1 99724.1 99713.6 99713.6 99697.9 99697.9 99676.9 99676.9
          99655.9 99655.9 99634.9 99634.9 99603.5 99655.9 99655.9 99634.9 99634.9 99603.5 99739.9 99739.9
          99724.1 99724.1 99713.6 99713.6 99724.1 99724.1 99713.6 99713.6 99697.9 99697.9 99676.9 99676.9
          99655.9 99655.9 99634.9 99634.9 99603.5 99572.5 99572.5 99551.9 99551.9 99522.1 99484.6 99572.5
          99572.5 99551.9 99551.9 99522.1 99484.6 99451.8 99425.4 99451.8 99425.4 99572.5 99572.5 99551.9
          99551.9 99522.1 99484.6 99451.8 99425.4 99406.1 99393.1 99384.9 99379.9 99406.1 99393.1 99384.9
          99379.9 99376.9 99375.2 99374.1 99373.5 99376.9 99375.2 99374.1 99373.5 99406.1 99393.1 99406.1
          99393.1 99384.9 99379.9 99384.9 99379.9 99406.1 99393.1 99384.9 99379.9 99376.9 99375.2 99376.9
          99375.2 99374.1 99373.5 99374.1 99373.5 99376.9 99375.2 99374.1 99373.5 99739.9 99739.9 99724.1
          99724.1 99713.6 99713.6 99724.1 99724.1 99713.6 99713.6 99697.9 99697.9 99676.9 99676.9 99655.9
          99655.9 99634.9 99634.9 99603.5 99739.9 99739.9 99724.1 99724.1 99713.6 99713.6 99724.1 99724.1
          99713.6 99713.6 99697.9 99697.9 99676.9 99676.9 99655.9 99655.9 99634.9 99634.9 99603.5 99572.5
          99572.5 99551.9 99551.9 99522.1 99484.6 99451.8 99425.4 99572.5 99572.5 99551.9 99551.9 99522.1
          99484.6 99451.8 99425.4 99739.9 99739.9 99724.1 99724.1 99713.6 99713.6 99724.1 99724.1 99713.6
          99713.6 99697.9 99697.9 99676.9 99676.9 99739.9 99739.9 99724.1 99724.1 99713.6 99713.6 99724.1
          99724.1 99713.6 99713.6 99697.9 99697.9 99676.9 99676.9 99655.9 99655.9 99634.9 99634.9 99603.5
          99655.9 99655.9 99634.9 99634.9 99603.5 99739.9 99739.9 99724.1 99724.1 99713.6 99713.6 99724.1
          99724.1 99713.6 99713.6 99697.9 99697.9 99676.9 99676.9 99655.9 99655.9 99634.9 99634.9 99603.5
          99572.5 99572.5 99551.9 99551.9 99522.1 99484.6 99572.5 99572.5 99551.9 99551.9 99522.1 99484.6
          99451.8 99425.4 99451.8 99425.4 99572.5 99572.5 99551.9 99551.9 99522.1 99484.6 99451.8 99425.4
          99406.1 99393.1 99384.9 99379.9 99406.1 99393.1 99384.9 99379.9 99376.9 99375.2 99374.1 99373.5
          99376.9 99375.2 99374.1 99373.5 99406.1 99393.1 99406.1 99393.1 99384.9 99379.9 99384.9 99379.9
          99406.1 99393.1 99384.9 99379.9 99376.9 99375.2 99376.9 99375.2 99374.1 99373.5 99374.1 99373.5
          99376.9 99375.2 99374.1 99373.5 99373.2 99372.9 99372.8 99372.7 99372.6 99373.2 99372.9 99372.8
          99372.7 99372.6 99372.5 99372.5 99372.4 99372.4 99372.5 99372.5 99372.4 99372.4 99373.2 99372.9
          99372.8 99373.2 99372.9 99372.8 99372.7 99372.6 99372.7 99372.6 99373.2 99372.9 99372.8 99372.7
          99372.6 99372.5 99372.5 99372.5 99372.5 99372.4 99372.4 99372.4 99372.4 99372.5 99372.5 99372.4
          99372.4 99372.3 99372.2 99372.2 99372.1 99372.1 99372.3 99372.2 99372.2 99372.1 99372.1 99372
          99372 99371.9 99371.9 99372 99372 99371.9 99371.9 99372.3 99372.2 99372.3 99372.2 99372.2
          99372.1 99372.1 99372.2 99372.1 99372.1 99372.3 99372.2 99372.2 99372.1 99372.1 99372 99372
          99372 99372 99371.9 99371.9 99372 99371.9 99372 99372 99372 99371.9 99373.2 99372.9
          99372.8 99372.7 99372.6 99373.2 99372.9 99372.8 99372.7 99372.6 99372.5 99372.5 99372.4 99372.4
          99372.5 99372.5 99372.4 99372.4 99373.2 99372.9 99372.8 99373.2 99372.9 99372.8 99372.7 99372.6
          99372.7 99372.6 99373.2 99372.9 99372.8 99372.7 99372.6 99372.5 99372.5 99372.5 99372.5 99372.4
          99372.4 99372.4 99372.4 99372.5 99372.5 99372.4 99372.4 99372.3 99372.2 99372.2 99372.1 99372.1
          99372.3 99372.2 99372.2 99372.1 99372.1 99372 99372 99372 99371.9 99372 99372 99372
          99371.9 99372.3 99372.2 99372.3 99372.2 99372.2 99372.1 99372.1 99372.2 99372.1 99372.1 99372.3
          99372.2 99372.2 99372.1 99372.1 99372 99372 99372 99372 99371.9 99371.9 99371.9 99371.9
          99372 99372 99371.9 99371.9 99371.8 99371.8 99371.7 99371.7 99371.8 99371.8 99371.7 99371.7
          99371.6 99371.6 99371.5 99371.5 99371.4 99371.6 99371.6 99371.5 99371.5 99371.4 99371.9 99371.8
          99371.9 99371.8 99371.8 99371.7 99371.8 99371.7 99371.9 99371.8 99371.8 99371.7 99371.6 99371.6
          99371.5 99371.7 99371.6 99371.6 99371.5 99371.5 99371.5 99371.5 99371.7 99371.6 99371.6 99371.5
          99371.5 99371.3 99371.3 99371.2 99371.1 99371.4 99371.3 99371.2 99371.2 99371 99370.9 99370.8
          99370.7 99371.1 99371 99370.9 99370.8 99371.4 99371.4 99371.4 99371.4 99371.3 99371.2 99371.4
          99371.3 99371.5 99371.4 99371.4 99371.4 99371.2 99371.2 99371.3 99371.3 99371.1 99371.1 99371.3
          99371.3 99371.4 99371.4 99371.4 99371.4 99371.9 99371.8 99371.8 99371.7 99371.9 99371.8 99371.8
          99371.7 99371.7 99371.6 99371.6 99371.5 99371.5 99371.7 99371.6 99371.6 99371.5 99371.5 99371.9
          99371.8 99371.8 99371.8 99371.8 99371.7 99371.7 99371.7 99371.8 99371.8 99371.7 99371.7 99371.6
          99371.6 99371.5 99371.6 99371.6 99371.5 99371.5 99371.5 99371.5 99371.4 99371.6 99371.6 99371.5
          99371.5 99371.4 99371.5 99371.4 99371.4 99371.4 99371.4 99371.4 99371.4 99371.3 99371.4 99371.4
          99371.4 99371.4 99371.3 99371.3 99371.3 99371.3 99371.4 99371.4 99371.4 99371.3 99371.3 99371.2
          99371.2 99371.2 99371.3 99371.3 99371.2 99371.1 99371.2 99371.2 99371.1 99371 99371.1 99371.1
          99370.9 99370.8 99371 99370.9 99370.8 99370.7 99370.5 99370.4 99370.1 99369.8 99369.5 99370.7
          99370.6 99370.4 99370.2 99370 99369 99368.5 99367.8 99366.8 99369.7 99369.3 99368.9 99368.3
          99371 99371 99370.9 99371.3 99371.3 99371.4 99370.9 99370.8 99371.5 99371.6 99371.5 99371.6
          99371.7 99371.9 99372.1 99370.8 99370.7 99371.8 99372.1 99370.6 99370.6 99372.4 99372.8 99372.5
          99372.9 99373.5 99374.3 99365.6 99364.1 99362.1 99359.4 99355.8 99367.5 99366.5 99365.1 99363.3
          99360.9 99351.1 99344.8 99336.4 99325.8 99357.4 99352.4 99345 99334 99370.5 99370.3 99373.4
          99374.1 99370.1 99369.7 99369 99375.1 99376.2 99377.6 99375.3 99376.6 99378.3 99380.6 99383.6
          99367.8 99365.4 99379.2 99380.8 99360.7 99350.3 99381.7 99376.3 99389.2 99381.1 99367.3 99387.6
          99392.9 99400.1 99410.2 99371.5 99371.6 99371.7 99371.9 99372.1 99371.3 99371.3 99371.4 99371.5
          99371.6 99372.5 99372.9 99373.5 99374.3 99371.8 99372.1 99372.4 99372.8 99371 99371 99370.9
          99370.7 99370.6 99370.4 99370.9 99370.8 99370.2 99370 99370.5 99370.4 99370.1 99369.8 99369.5
          99370.8 99370.7 99369.7 99369.3 99370.6 99370.6 99368.9 99368.3 99369 99368.5 99367.8 99366.8
          99375.3 99376.6 99378.3 99380.6 99383.6 99373.4 99374.1 99375.1 99376.2 99377.6 99387.6 99392.9
          99400.1 99410.2 99379.2 99380.8 99381.7 99389.2 99376.3 99367.3 99381.1 99370.5 99370.3 99367.5
          99366.5 99370.1 99369.7 99369 99365.1 99363.3 99360.9 99365.6 99364.1 99362.1 99359.4 99355.8
          99367.8 99365.4 99357.4 99352.4 99360.7 99350.3 99345 99334 99351.1 99344.8 99336.4 99325.8
          99371.8 99371.8 99371.7 99371.7 99371.8 99371.8 99371.7 99371.7 99371.6 99371.6 99371.5 99371.5
          99371.4 99371.6 99371.6 99371.5 99371.5 99371.4 99371.9 99371.8 99371.9 99371.8 99371.8 99371.7
          99371.8 99371.7 99371.9 99371.8 99371.8 99371.7 99371.6 99371.6 99371.5 99371.7 99371.6 99371.6
          99371.5 99371.5 99371.5 99371.5 99371.7 99371.6 99371.6 99371.5 99371.5 99371.3 99371.3 99371.2
          99371.1 99371.4 99371.3 99371.2 99371.2 99371 99370.9 99370.8 99370.7 99371.1 99371 99370.9
          99370.8 99371.4 99371.4 99371.4 99371.4 99371.3 99371.2 99371.4 99371.3 99371.5 99371.4 99371.4
          99371.4 99371.2 99371.2 99371.3 99371.3 99371.1 99371.1 99371.3 99371.3 99371.4 99371.4 99371.4
          99371.4 99371.9 99371.8 99371.8 99371.7 99371.9 99371.8 99371.8 99371.7 99371.7 99371.6 99371.6
          99371.5 99371.5 99371.7 99371.6 99371.6 99371.5 99371.5 99371.9 99371.8 99371.8 99371.8 99371.8
          99371.7 99371.7 99371.7 99371.8 99371.8 99371.7 99371.7 99371.6 99371.6 99371.5 99371.6 99371.6
          99371.5 99371.5 99371.5 99371.5 99371.4 99371.6 99371.6 99371.5 99371.5 99371.4 99371.5 99371.4
          99371.4 99371.4 99371.4 99371.4 99371.4 99371.3 99371.4 99371.4 99371.4 99371.4 99371.3 99371.3
          99371.3 99371.3 99371.4 99371.4 99371.4 99371.3 99371.3 99371.2 99371.2 99371.2 99371.3 99371.3
          99371.2 99371.1 99371.2 99371.2 99371.1 99371 99371.1 99371.1 99370.9 99370.8 99371 99370.9
          99370.8 99370.7 99370.5 99370.4 99370.1 99369.8 99369.5 99370.7 99370.6 99370.4 99370.2 99370
          99369 99368.5 99367.8 99366.8 99369.7 99369.3 99368.9 99368.3 99371 99371 99370.9 99371.3
          99371.3 99371.4 99370.9 99370.8 99371.5 99371.6 99371.5 99371.6 99371.7 99371.9 99372.1 99370.8
          99370.7 99371.8 99372.1 99370.6 99370.6 99372.4 99372.8 99372.5 99372.9 99373.5 99374.3 99365.6
          99364.1 99362.1 99359.4 99355.8 99367.5 99366.5 99365.1 99363.3 99360.9 99351.1 99344.8 99336.4
          99325.8 99357.4 99352.4 99345 99334 99370.5 99370.3 99373.4 99374.1 99370.1 99369.7 99369
          99375.1 99376.2 99377.6 99375.3 99376.6 99378.3 99380.6 99383.6 99367.8 99365.4 99379.2 99380.8
          99360.7 99350.3 99381.7 99376.3 99389.2 99381.1 99367.3 99387.6 99392.9 99400.1 99410.2 99371.5
          99371.6 99371.7 99371.9 99372.1 99371.3 99371.3 99371.4 99371.5 99371.6 99372.5 99372.9 99373.5
          99374.3 99371.8 99372.1 99372.4 99372.8 99371 99371 99370.9 99370.7 99370.6 99370.4 99370.9
          99370.8 99370.2 99370 99370.5 99370.4 99370.1 99369.8 99369.5 99370.8 99370.7 99369.7 99369.3
          99370.6 99370.6 99368.9 99368.3 99369 99368.5 99367.8 99366.8 99375.3 99376.6 99378.3 99380.6
          99383.6 99373.4 99374.1 99375.1 99376.2 99377.6 99387.6 99392.9 99400.1 99410.2 99379.2 99380.8
          99381.7 99389.2 99376.3 99367.3 99381.1 99370.5 99370.3 99367.5 99366.5 99370.1 99369.7 99369
          99365.1 99363.3 99360.9 99365.6 99364.1 99362.1 99359.4 99355.8 99367.8 99365.4 99357.4 99352.4
          99360.7 99350.3 99345 99334 99351.1 99344.8 99336.4 99325.8
        </DataArray>
        <DataArray type="Float32" Name="pressure_nonwetting" NumberOfComponents="1" format="ascii">
          100003 100003 100003 100003 100003 100003 100003 100003 100003 100003 100003 100003
          100003 100003 100003 100003 100003 100003 100003 100003 100003 100003 100003 100003
          100003 100003 100003 100003 100003 100003 100003 100003 100003 100003 100003 100003
          100003 100003 100003 100003 100003 100003 100003 100003 100003 100003 100003 100003
          100003 100003 100003 100003 100003 100003 100003 100003 100003 100003 100003 100003
          100003 100003 100003 100003 100003 100003 100003 100003 100003 100003 100003 100003
          100003 100003 100003 100003 100003 100003 100003 100003 100003 100003 100003 100003
          100003 100003 100003 100003 100003 100003 100003 100003 100003 100003 100003 100003
          100003 100003 100003 100003 100003 100003 100003 100003 100003 100003 100003 100003
          100003 100003 100003 100003 100003 100003 100003 100003 100003 100003 100003 100003
          100003 100003 100003 100003 100003 100003 100003 100003 100003 100003 100003 100003
          100003 100003 100003 100003 100003 100003 100003 100003 100003 100003 100003 100003
          100003 100003 100003 100003 100003 100003 100003 100003 100003 100003 100003 100003
          100003 100003 100003 100003 100003 100003 100003 100003 100003 100003 100003 100003
          100003 100003 100003 100003 100003 100003 100003 100003 100003 100003 100003 100003
          100003 100003 100003 100003 100003 100003 100003 100003 100003 100003 100003 100003
          100003 100003 100003 100003 100003 100003 100003 100003 100003 100003 100003 100003
          100003 100003 100003 100003 100003 100003 100003 100003 100003 100003 100003 100003
          100003 100003 100003 100003 100003 100003 100003 100003 100003 100003 100003 100003
          100003 100003 100003 100003 100003 100003 100003 100003 100003 100003 100003 100003
          100003 100003 100003 100003 100003 100003 100003 100003 100003 100003 100003 100003
          100003 100003 100003 100003 100003 100003 100003 100003 100003 100003 100003 100003
          100003 100003 100003 100003 100003 100003 100003 100003 100003 100003 100003 100003
          100003 100003 100003 100003 100003 100003 100003 100003 100003 100003 100003 100003
          100003 100003 100003 100003 100003 100003 100003 100003 100003 100003 100003 100003
          100003 100003 100003 100003 100003 100003 100003 100003 100003 100003 100003 100003
          100003 100003 100003 100003 100003 100003 100003 100003 100003 100003 100003 100003
          100003 100003 100003 100003 100003 100003 100003 100003 100003 100003 100003 100003
          100003 100003 100003 100003 100003 100003 100003 100003 100003 100003 100003 100003
          100003 100003 100003 100003 100002 100002 100002 100003 100003 100002 100002 100002
          100002 100002 100002 100002 100002 100002 100002 100002 100003 100003 100002 100003
          100003 100002 100002 100002 100002 100002 100003 100003 100002 100002 100002 100002
          100002 100002 100002 100002 100002 100002 100002 100002 100002 100002 100002 100002
          100002 100002 100002 100002 100002 100002 100002 100002 100002 100002 100002 100002
          100002 100002 100002 100002 100002 100002 100002 100002 100002 100002 100002 100002
          100002 100002 100002 100002 100002 100002 100002 100002 100002 100002 100002 100002
          100002 100002 100002 100002 100002 100002 100002 100002 100003 100003 100002 100002
          100002 100003 100003 100002 100002 100002 100002 100002 100002 100002 100002 100002
          100002 100002 100003 100003 100002 100003 100003 100002 100002 100002 100002 100002
          100003 100003 100002 100002 100002 100002 100002 100002 100002 100002 100002 100002
          100002 100002 100002 100002 100002 100002 100002 100002 100002 100002 100002 100002
          100002 100002 100002 100002 100002 100002 100002 100002 100002 100002 100002 100002
          100002 100002 100002 100002 100002 100002 100002 100002 100002 100002 100002 100002
          100002 100002 100002 100002 100002 100002 100002 100002 100002 100002 100002 100002
          100002 100002 100003 100003 100003 100003 100003 100003 100003 100003 100003 100003
          100003 100003 100003 100003 100003 100003 100003 100003 100003 100003 100003 100003
          100003 100003 100003 100003 100003 100003 100003 100003 100003 100003 100003 100003
          100003 100003 100003 100003 100003 100003 100003 100003 100003 100003 100003 100003
          100003 100003 100003 100003 100003 100003 100003 100003 100003 100003 100003 100003
          100003 100003 100003 100003 100003 100003 100003 100003 100003 100003 100003 100003
          100003 100003 100003 100003 100003 100003 100003 100003 100003 100003 100003 100003
          100003 100003 100003 100003 100003 100003 100003 100003 100003 100003 100003 100003
          100003 100003 100003 100003 100003 100003 100003 100003 100003 100003 100003 100003
          100003 100003 100003 100003 100003 100003 100003 100003 100003 100003 100003 100003
          100003 100003 100003 100003 100003 100003 100003 100003 100003 100003 100003 100003
          100003 100003 100003 100003 100003 100003 100003 100003 100003 100003 100003 100003
          100003 100003 100003 100003 100003 100003 100003 100003 100003 100003 100003 100003
          100003 100003 100003 100003 100003 100003 100003 100003 100003 100003 100003 100003
          100003 100003 100003 100003 100003 100003 100003 100003 100003 100003 100003 100003
          100003 100003 100003 100003 100003 100003 100003 100003 100003 100003 100003 100003
          100003 100003 100003 100003 100003 100003 100003 100003 100003 100003 100003 100003
          100003 100003 100003 100003 100003 100003 100003 100003 100003 100003 100003 100003
          100003 100003 100003 100003 100003 100003 100003 100003 100003 100003 100003 100003
          100003 100003 100003 100003 100003 100003 100003 100003 100003 100003 100003 100003
          100003 100003 100003 100003 100003 100003 100003 100003 100003 100003 100003 100003
          100003 100003 100003 100003 100003 100003 100003 100003 100003 100003 100003 100003
          100003 100003 100003 100003 100003 100003 100003 100003 100003 100003 100003 100003
          100003 100003 100003 100003 100003 100003 100003 100003 100003 100003 100003 100003
          100003 100003 100003 100003 100003 100003 100003 100003 100003 100003 100003 100003
          100003 100003 100003 100003 100003 100003 100003 100003 100003 100003 100003 100003
          100003 100003 100003 100003 100003 100003 100003 100003 100003 100003 100003 100003
          100003 100003 100003 100003 100003 100003 100003 100003 100003 100003 100003 100003
          100003 100003 100003 100003 100003 100003 100003 100003 100003 100003 100003 100003
          100003 100003 100003 100003 100003 100003 100002 100002 100002 100003 100003 100002
          100002 100002 100002 100002 100002 100002 100002 100002 100002 100002 100003 100003
          100002 100003 100003 100002 100002 100002 100002 100002 100003 100003 100002 100002
          100002 100002 100002 100002 100002 100002 100002 100002 100002 100002 100002 100002
          100002 100002 100002 100002 100002 100002 100002 100002 100002 100002 100002 100002
          100002 100002 100002 100002 100002 100002 100002 100002 100002 100002 100002 100002
          100002 100002 100002 100002 100002 100002 100002 100002 100002 100002 100002 100002
          100002 100002 100002 100002 100002 100002 100002 100002 100002 100002 100003 100003
          100002 100002 100002 100003 100003 100002 100002 100002 100002 100002 100002 100002
          100002 100002 100002 100002 100003 100003 100002 100003 100003 100002 100002 100002
          100002 100002 100003 100003 100002 100002 100002 100002 100002 100002 100002 100002
          100002 100002 100002 100002 100002 100002 100002 100002 100002 100002 100002 100002
          100002 100002 100002 100002 100002 100002 100002 100002 100002 100002 100002 100002
          100002 100002 100002 100002 100002 100002 100002 100002 100002 100002 100002 100002
          100002 100002 100002 100002 100002 100002 100002 100002 100002 100002 100002 100002
          100002 100002 100002 100002 100002 100002 100002 100002 100002 100002 100002 100002
          100002 100001 100001 100001 100001 100002 100001 100001 100001 100001 100002 100002
          100002 100002 100002 100002 100002 100002 100002 100002 100002 100002 100002 100001
          100001 100002 100001 100001 100001 100001 100001 100001 100002 100001 100001 100001
          100001 100001 100001 100001 100001 100001 100001 100001 100001 100001 100001 100001
          100001 100001 100001 100001 100001 100001 100001 100001 100001 100001 100001 100001
          100001 100001 100001 100001 100001 100001 100001 100001 100001 100001 100001 100001
          100001 100001 100001 100001 100001 100002 100002 100002 100002 100002 100002 100002
          100002 100002 100001 100001 100001 100001 100002 100001 100001 100001 100001 100002
          100002 100002 100002 100002 100002 100002 100002 100002 100002 100002 100002 100002
          100001 100001 100002 100001 100001 100001 100001 100001 100001 100002 100001 100001
          100001 100001 100001 100001 100001 100001 100001 100001 100001 100001 100001 100001
          100001 100001 100001 100001 100001 100001 100001 100001 100001 100001 100001 100001
          100001 100001 100001 100001 100001 100001 100001 100001 100001 100001 100001 100001
          100001 100001 100001 100001 100001 100001 100001 100001 100001 100001 100001 100001
          100001 100001 100001 100001 100001 100001 100000 100000 100001 100001 100000 100000
          100001 100001 100001 100001 100001 100001 100001 100001 100001 100001 100001 100001
          100001 100001 100001 100001 100001 100001 100001 100000 100000 100000 100000 100001
          100001 100000 100000 100000 100000 100000 100000 100000 100000 100000 100000 100000
          100000 100000 100000 100000 100000 100000 100000 100000 100000 100000 100000 100000
          100000 100000 100000 100000 100000 100000 100000 100000 100000 100000 100000 100000
          100000 100000 100000 100000 100000 100000 100000 100000 100000 100000 100000 100000
          100000 100000 100000 100001 100001 100001 100001 100001 100001 100001 100001 100001
          100001 100001 100001 100000 100000 100001 100001 100000 100000 100001 100001 100001
          100001 100001 100001 100001 100001 100001 100001 100001 100001 100001 100001 100001
          100001 100001 100001 100001 100000 100000 100000 100000 100001 100001 100000 100000
          100000 100000 100000 100000 100000 100000 100000 100000 100000 100000 100000 100000
          100000 100000 100000 100000 100000 100000 100000 100000 100000 100000 100000 100000
          100000 100000 100000 100000 100000 100000 100000 100000 100000 100000 100000 100000
          100000 100000 100000 100000 100000 100000 100000 100000 100000 100000 100000 100000
          100002 100002 100002 100002 100002 100002 100002 100002 100002 100001 100001 100001
          100001 100002 100001 100001 100001 100001 100002 100002 100002 100002 100002 100002
          100002 100002 100002 100002 100002 100002 100002 100001 100001 100002 100001 100001
          100001 100001 100001 100001 100002 100001 100001 100001 100001 100001 100001 100001
          100001 100001 100001 100001 100001 100001 100001 100001 100001 100001 100001 100001
          100001 100001 100001 100001 100001 100001 100001 100001 100001 100001 100001 100001
          100001 100001 100001 100001 100001 100001 100001 100001 100001 100001 100001 100001
          100001 100002 100002 100002 100002 100002 100002 100002 100002 100002 100001 100001
          100001 100001 100002 100001 100001 100001 100001 100002 100002 100002 100002 100002
          100002 100002 100002 100002 100002 100002 100002 100002 100001 100001 100002 100001
          100001 100001 100001 100001 100001 100002 100001 100001 100001 100001 100001 100001
          100001 100001 100001 100001 100001 100001 100001 100001 100001 100001 100001 100001
          100001 100001 100001 100001 100001 100001 100001 100001 100001 100001 100001 100001
          100001 100001 100001 100001 100001 100001 100001 100001 100001 100001 100001 100001
          100001 100001 100001 100001 100001 100001 100001 100001 100001 100001 100001 100001
          100001 100001 100000 100000 100001 100001 100000 100000 100001 100001 100001 100001
          100001 100001 100001 100001 100001 100001 100001 100001 100001 100001 100001 100001
          100001 100001 100001 100000 100000 100000 100000 100001 100001 100000 100000 100000
          100000 100000 100000 100000 100000 100000 100000 100000 100000 100000 100000 100000
          100000 100000 100000 100000 100000 100000 100000 100000 100000 100000 100000 100000
          100000 100000 100000 100000 100000 100000 100000 100000 100000 100000 100000 100000
          100000 100000 100000 100000 100000 100000 100000 100000 100000 100000 100000 100001
          100001 100001 100001 100001 100001 100001 100001 100001 100001 100001 100001 100000
          100000 100001 100001 100000 100000 100001 100001 100001 100001 100001 100001 100001
          100001 100001 100001 100001 100001 100001 100001 100001 100001 100001 100001 100001
          100000 100000 100000 100000 100001 100001 100000 100000 100000 100000 100000 100000
          100000 100000 100000 100000 100000 100000 100000 100000 100000 100000 100000 100000
          100000 100000 100000 100000 100000 100000 100000 100000 100000 100000 100000 100000
          100000 100000 100000 100000 100000 100000 100000 100000 100000 100000 100000 100000
          100000 100000 100000 100000 100000 100000 100000 100000
        </DataArray>
        <DataArray type="Float32" Name="density_wetting" NumberOfComponents="1" format="ascii">
          1000 1000 1000 1000 1000 1000 1000 1000 1000 1000 1000 1000