<?xml version="1.0"?>
<VTKFile type="UnstructuredGrid" version="0.1" byte_order="LittleEndian">
  <UnstructuredGrid>
    <Piece NumberOfCells="1976" NumberOfPoints="2191">
      <CellData Scalars="pressure_wetting">
        <DataArray type="Float32" Name="pressure_wetting" NumberOfComponents="1" format="ascii">
          99697.8 99697.8 99676.8 99676.8 99739.9 99739.9 99724.1 99724.1 99713.6 99713.6 99724.1 99724.1
          99713.6 99713.6 99613.9 99613.9 99593 99593 99655.8 99655.8 99634.8 99634.8 99562.1 99531.9
          99531.9 99512.1 99512.1 99484.6 99430.3 99430.3 99418.3 99418.3 99459.8 99459.8 99444.2 99444.2
          99562.1 99484.6 99531.9 99531.9 99512.1 99512.1 99459.8 99459.8 99444.2 99444.2 99430.3 99430.3
          99418.3 99418.3 99430.3 99430.3 99418.3 99418.3 99459.8 99459.8 99444.2 99444.2 99484.6 99531.9
          99531.9 99512.1 99512.1 99562.1 99613.9 99613.9 99593 99593 99655.8 99655.8 99634.8 99634.8
          99613.9 99613.9 99593 99593 99655.8 99655.8 99634.8 99634.8 99697.8 99697.8 99676.8 99676.8
          99739.9 99739.9 99724.1 99724.1 99713.6 99713.6 99724.1 99724.1 99713.6 99713.6 99697.8 99697.8
          99676.8 99676.8 99739.9 99739.9 99724.1 99724.1 99713.6 99713.6 99724.1 99724.1 99713.6 99713.6
          99613.9 99613.9 99593 99593 99655.8 99655.8 99634.8 99634.8 99697.8 99697.8 99676.8 99676.8
          99739.9 99739.9 99724.1 99724.1 99713.6 99713.6 99724.1 99724.1 99713.6 99713.6 99739.9 99739.9
          99724.1 99724.1 99713.6 99713.6 99724.1 99724.1 99713.6 99713.6 99697.8 99697.8 99676.8 99676.8
          99655.8 99655.8 99634.8 99634.8 99613.9 99613.9 99593 99593 99562.1 99531.9 99531.9 99512.1
          99512.1 99484.6 99459.8 99459.8 99444.2 99444.2 99430.3 99430.3 99418.3 99418.3 99430.3 99430.3
          99418.3 99418.3 99459.8 99459.8 99444.2 99444.2 99484.6 99531.9 99531.9 99512.1 99512.1 99562.1
          99379.9 99385 99393.2 99406.3 99406.3 99393.2 99385 99379.9 99376.9 99375.2 99374.1 99373.5
          99373.2 99373.5 99373.2 99374.1 99375.2 99376.9 99373.2 99373.5 99374.1 99373.2 99373.5 99374.1
          99375.2 99376.9 99375.2 99376.9 99379.9 99385 99393.2 99406.3 99406.3 99393.2 99385 99379.9
          99393.2 99406.3 99385 99379.9 99375.2 99376.9 99373.2 99373.5 99374.1 99372.9 99372.8 99372.6
          99372.7 99372.9 99372.8 99372.9 99372.8 99372.7 99372.6 99372.7 99372.6 99372.5 99372.5 99372.5
          99372.5 99372.4 99372.4 99372.4 99372.4 99372.5 99372.5 99372.4 99372.3 99372.2 99372.3 99372.1
          99372.1 99372.2 99372 99372 99371.9 99371.9 99372 99372 99371.9 99371.9 99371.9 99371.9
          99372 99372 99372.1 99372.1 99372.2 99372.1 99372.1 99372.2 99372.2 99372.3 99372.2 99372.3
          99372.3 99372.2 99372.2 99372.1 99372.1 99371.9 99371.9 99372 99372 99371.9 99371.9 99372
          99372 99372.2 99372.1 99372.1 99372.3 99372.2 99372.4 99372.4 99372.5 99372.5 99372.4 99372.4
          99372.5 99372.5 99372.6 99372.7 99372.8 99372.9 99372.7 99372.6 99372.8 99372.9 99372.9 99372.8
          99372.6 99372.7 99372.9 99372.8 99372.9 99372.8 99372.7 99372.6 99372.7 99372.6 99372.5 99372.5
          99372.5 99372.5 99372.4 99372.4 99372.4 99372.4 99372.5 99372.5 99372.4 99372.4 99372.2 99372.3
          99372.1 99372.1 99372.2 99372 99372 99371.9 99371.9 99372 99372 99371.9 99371.9 99371.9
          99371.9 99372 99372 99372.1 99372.1 99372.2 99372.1 99372.1 99372.2 99372.2 99372.3 99372.2
          99372.3 99372.3 99372.2 99372.2 99372.1 99372.1 99371.9 99371.9 99372 99372 99371.9 99371.9
          99372 99372 99372.2 99372.1 99372.1 99372.3 99372.2 99372.3 99372.4 99372.5 99372.5 99372.4
          99372.4 99372.5 99372.5 99372.6 99372.7 99372.8 99372.9 99372.7 99372.6 99372.8 99372.9 99374.1
          99373.5 99373.2 99376.9 99375.2 99379.9 99385 99406.3 99393.2 99379.9 99385 99393.2 99406.3
          99376.9 99375.2 99374.1 99373.5 99373.2 99373.2 99373.5 99374.1 99375.2 99376.9 99376.9 99375.2
          99374.1 99373.2 99373.5 99373.2 99373.5 99374.1 99375.2 99376.9 99379.9 99385 99393.2 99406.3
          99406.3 99393.2 99385 99379.9 99379.9 99385 99393.2 99406.3 99430.3 99430.3 99418.3 99418.3
          99459.8 99459.8 99444.2 99444.2 99484.6 99531.9 99531.9 99512.1 99512.1 99562.1 99562.1 99531.9
          99531.9 99512.1 99512.1 99484.6 99459.8 99459.8 99444.2 99444.2 99430.3 99430.3 99418.3 99418.3
          99430.3 99430.3 99418.3 99418.3 99459.8 99459.8 99444.2 99444.2 99484.6 99531.9 99531.9 99512.1
          99512.1 99562.1 99613.9 99613.9 99593 99593 99655.8 99655.8 99634.8 99634.8 99697.8 99697.8
          99676.8 99676.8 99739.9 99739.9 99724.1 99724.1 99713.6 99713.6 99724.1 99724.1 99713.6 99713.6
          99739.9 99739.9 99724.1 99724.1 99713.6 99713.6 99724.1 99724.1 99713.6 99713.6 99697.8 99697.8
          99676.8 99676.8 99655.8 99655.8 99634.8 99634.8 99613.9 99613.9 99593 99593 99613.9 99613.9
          99593 99593 99655.8 99655.8 99634.8 99634.8 99697.8 99697.8 99676.8 99676.8 99739.9 99739.9
          99724.1 99724.1 99713.6 99713.6 99724.1 99724.1 99713.6 99713.6 99739.9 99739.9 99724.1 99724.1
          99713.6 99713.6 99724.1 99724.1 99713.6 99713.6 99697.8 99697.8 99676.8 99676.8 99655.8 99655.8
          99634.8 99634.8 99613.9 99613.9 99593 99593 99430.3 99430.3 99418.3 99418.3 99459.8 99459.8
          99444.2 99444.2 99531.9 99531.9 99512.1 99512.1 99484.6 99562.1 99459.8 99459.8 99444.2 99444.2
          99430.3 99430.3 99418.3 99418.3 99484.6 99531.9 99531.9 99512.1 99512.1 99562.1 99655.8 99655.8
          99634.8 99634.8 99613.9 99613.9 99593 99593 99739.9 99739.9 99724.1 99724.1 99713.6 99713.6
          99724.1 99724.1 99713.6 99713.6 99697.8 99697.8 99676.8 99676.8 99739.9 99739.9 99724.1 99724.1
          99713.6 99713.6 99724.1 99724.1 99713.6 99713.6 99697.8 99697.8 99676.8 99676.8 99613.9 99613.9
          99593 99593 99655.8 99655.8 99634.8 99634.8 99739.9 99739.9 99724.1 99724.1 99713.6 99713.6
          99724.1 99724.1 99713.6 99713.6 99697.8 99697.8 99676.8 99676.8 99739.9 99739.9 99724.1 99724.1
          99713.6 99713.6 99724.1 99724.1 99713.6 99713.6 99697.8 99697.8 99676.8 99676.8 99655.8 99655.8
          99634.8 99634.8 99613.9 99613.9 99593 99593 99655.8 99655.8 99634.8 99634.8 99613.9 99613.9
          99593 99593 99562.1 99484.6 99531.9 99531.9 99512.1 99512.1 99562.1 99531.9 99531.9 99512.1
          99512.1 99484.6 99459.8 99459.8 99444.2 99444.2 99430.3 99430.3 99418.3 99418.3 99459.8 99459.8
          99444.2 99444.2 99430.3 99430.3 99418.3 99418.3 99484.6 99531.9 99531.9 99512.1 99512.1 99562.1
          99459.8 99459.8 99444.2 99444.2 99430.3 99430.3 99418.3 99418.3 99393.2 99406.3 99379.9 99385
          99376.9 99375.2 99373.2 99373.5 99374.1 99376.9 99375.2 99374.1 99373.2 99373.5 99373.2 99373.5
          99374.1 99375.2 99376.9 99379.9 99385 99379.9 99385 99393.2 99406.3 99393.2 99406.3 99406.3
          99393.2 99385 99379.9 99373.5 99373.2 99374.1 99375.2 99376.9 99374.1 99373.5 99373.2 99375.2
          99376.9 99385 99379.9 99406.3 99393.2 99430.3 99430.3 99418.3 99418.3 99459.8 99459.8 99444.2
          99444.2 99562.1 99531.9 99531.9 99512.1 99512.1 99484.6 99430.3 99430.3 99418.3 99418.3 99459.8
          99459.8 99444.2 99444.2 99531.9 99531.9 99512.1 99512.1 99484.6 99562.1 99613.9 99613.9 99593
          99593 99655.8 99655.8 99634.8 99634.8 99697.8 99697.8 99676.8 99676.8 99739.9 99739.9 99724.1
          99724.1 99713.6 99713.6 99724.1 99724.1 99713.6 99713.6 99655.8 99655.8 99634.8 99634.8 99613.9
          99613.9 99593 99593 99697.8 99697.8 99676.8 99676.8 99739.9 99739.9 99724.1 99724.1 99713.6
          99713.6 99724.1 99724.1 99713.6 99713.6 99697.8 99697.8 99676.8 99676.8 99739.9 99739.9 99724.1
          99724.1 99713.6 99713.6 99724.1 99724.1 99713.6 99713.6 99613.9 99613.9 99593 99593 99655.8
          99655.8 99634.8 99634.8 99562.1 99531.9 99531.9 99512.1 99512.1 99484.6 99430.3 99430.3 99418.3
          99418.3 99459.8 99459.8 99444.2 99444.2 99562.1 99484.6 99531.9 99531.9 99512.1 99512.1 99459.8
          99459.8 99444.2 99444.2 99430.3 99430.3 99418.3 99418.3 99430.3 99430.3 99418.3 99418.3 99459.8
          99459.8 99444.2 99444.2 99484.6 99531.9 99531.9 99512.1 99512.1 99562.1 99613.9 99613.9 99593
          99593 99655.8 99655.8 99634.8 99634.8 99613.9 99613.9 99593 99593 99655.8 99655.8 99634.8
          99634.8 99697.8 99697.8 99676.8 99676.8 99739.9 99739.9 99724.1 99724.1 99713.6 99713.6 99724.1
          99724.1 99713.6 99713.6 99697.8 99697.8 99676.8 99676.8 99739.9 99739.9 99724.1 99724.1 99713.6
          99713.6 99724.1 99724.1 99713.6 99713.6 99613.9 99613.9 99593 99593 99655.8 99655.8 99634.8
          99634.8 99697.8 99697.8 99676.8 99676.8 99739.9 99739.9 99724.1 99724.1 99713.6 99713.6 99724.1
          99724.1 99713.6 99713.6 99739.9 99739.9 99724.1 99724.1 99713.6 99713.6 99724.1 99724.1 99713.6
          99713.6 99697.8 99697.8 99676.8 99676.8 99655.8 99655.8 99634.8 99634.8 99613.9 99613.9 99593
          99593 99562.1 99531.9 99531.9 99512.1 99512.1 99484.6 99459.8 99459.8 99444.2 99444.2 99430.3
          99430.3 99418.3 99418.3 99430.3 99430.3 99418.3 99418.3 99459.8 99459.8 99444.2 99444.2 99484.6
          99531.9 99531.9 99512.1 99512.1 99562.1 99379.9 99385 99393.2 99406.3 99406.3 99393.2 99385
          99379.9 99376.9 99375.2 99374.1 99373.5 99373.2 99373.5 99373.2 99374.1 99375.2 99376.9 99373.2
          99373.5 99374.1 99373.2 99373.5 99374.1 99375.2 99376.9 99375.2 99376.9 99379.9 99385 99393.2
          99406.3 99406.3 99393.2 99385 99379.9 99393.2 99406.3 99385 99379.9 99375.2 99376.9 99373.2
          99373.5 99374.1 99372.8 99372.9 99372.6 99372.7 99372.5 99372.5 99372.4 99372.4 99372.5 99372.5
          99372.4 99372.4 99372.4 99372.4 99372.5 99372.5 99372.6 99372.7 99372.6 99372.7 99372.8 99372.9
          99372.8 99372.9 99372.6 99372.7 99372.8 99372.9 99372.9 99372.8 99372.7 99372.6 99372.5 99372.5
          99372.4 99372.3 99372.4 99372.4 99372.5 99372.5 99372.1 99372.1 99372.2 99372.2 99372.3 99372.3
          99372.2 99372.2 99372.1 99372.1 99372 99372 99371.9 99371.9 99371.9 99371.9 99372 99372
          99371.9 99371.9 99371.9 99371.9 99372 99372 99372 99372 99372.1 99372.1 99372.2 99372.2
          99372.3 99372.3 99372.2 99372.1 99372.2 99372.1 99372.2 99372.3 99372.2 99372.1 99372.1 99372
          99372 99371.9 99371.9 99371.9 99371.9 99372 99372 99371.9 99371.9 99372 99372 99372.1
          99372.2 99372.1 99372.2 99372.3 99372.2 99372.1 99372.1 99372.2 99372.3 99372.4 99372.4 99372.5
          99372.5 99372.6 99372.7 99372.9 99372.8 99372.6 99372.7 99372.8 99372.9 99372.5 99372.5 99372.4
          99372.4 99372.4 99372.4 99372.4 99372.4 99372.5 99372.5 99372.5 99372.5 99372.6 99372.7 99372.8
          99372.9 99372.9 99372.8 99372.7 99372.6 99372.8 99372.9 99372.7 99372.6 99372.5 99372.5 99372.3
          99372.4 99372.3 99372.2 99372.1 99372.1 99372.2 99372.3 99372.2 99372.3 99372.2 99372.2 99372.1
          99372.1 99372.1 99372.2 99372.1 99372 99372 99372 99372 99371.9 99371.9 99371.9 99371.9
          99372 99372 99371.9 99371.9 99371.8 99371.8 99371.7 99371.7 99371.8 99371.8 99371.8 99371.8
          99371.7 99371.7 99371.7 99371.7 99371.6 99371.5 99371.6 99371.6 99371.6 99371.5 99371.5 99371.4
          99371.5 99371.4 99371.5 99371.6 99371.6 99371.5 99371.4 99371.3 99371.3 99371.1 99371.2 99371
          99370.9 99370.5 99370.7 99370.8 99371.1 99371 99370.9 99370.7 99370.8 99371 99371 99371.1
          99371.1 99371.2 99371.2 99371.3 99371.2 99371.2 99371.3 99371.4 99371.3 99371.4 99371.4 99371.4
          99371.4 99371.3 99371.3 99371.3 99371.3 99371.3 99371.3 99371.4 99371.4 99371.4 99371.4 99371.4
          99371.4 99371.4 99371.5 99371.4 99371.5 99371.5 99371.7 99371.6 99371.6 99371.5 99371.5 99371.6
          99371.6 99371.7 99371.7 99371.8 99371.8 99371.9 99371.8 99371.7 99371.8 99371.9 99371.8 99371.9
          99371.7 99371.8 99371.7 99371.6 99371.6 99371.5 99371.5 99371.7 99371.6 99371.6 99371.5 99371.5
          99371.4 99371.5 99371.5 99371.6 99371.6 99371.7 99371.7 99371.7 99371.8 99371.8 99371.9 99371.8
          99371.8 99371.7 99371.7 99371.8 99371.8 99371.8 99371.8 99371.7 99371.7 99371.6 99371.6 99371.5
          99371.5 99371.4 99371.4 99371.5 99371.5 99371.6 99371.6 99371.2 99371.2 99371.3 99371.4 99371.3
          99371.3 99371.2 99371.1 99371 99370.9 99370.8 99370.7 99370.5 99370.8 99370.7 99370.9 99371
          99371.1 99371 99371 99371.1 99371.3 99371.3 99371.3 99371.3 99371.3 99371.1 99371.2 99371.2
          99371.3 99371.3 99371.4 99371.4 99371.4 99371.4 99371.3 99371.4 99371.5 99371.4 99371.4 99371.4
          99371.4 99371.4 99371.4 99371.4 99371.6 99371.5 99372.1 99371.8 99372.4 99372.8 99374.1 99373.4
          99371.7 99372 99372.3 99372.7 99370.5 99370.6 99370.7 99370.7 99370.8 99370.8 99371.6 99371.4
          99371.4 99371.3 99370.9 99370.9 99370 99370.2 99370.4 99370.6 99370.3 99370.1 99369.8 99369.5
          99369 99368.5 99367.8 99366.9 99368.3 99368.9 99369.3 99369.7 99361.2 99363.5 99365.3 99366.6
          99367.5 99365.7 99364.2 99362.3 99359.7 99356.3 99351.7 99345.6 99337.5 99326.9 99335.6 99346.4
          99353.3 99357.9 99364.2 99354.2 99347.5 99356.8 99369.6 99363.1 99357.4 99366.8 99377.7 99386.4
          99378.5 99375.7 99381.2 99379.8 99378.6 99366.2 99368 99369.1 99369.7 99370 99370.3 99370.4
          99373.3 99374 99375.9 99374.9 99377.2 99376.4 99375.1 99378 99380.2 99383.1 99392.1 99386.9
          99409.6 99399.3 99409.6 99399.3 99386.9 99392.1 99377.7 99378.5 99386.4 99381.2 99375.7 99379.8
          99378.6 99377.2 99374.9 99375.9 99374 99373.3 99378 99380.2 99383.1 99376.4 99375.1 99373.4
          99374.1 99372.4 99372.8 99372.1 99371.8 99371.5 99371.6 99371.6 99371.4 99371.4 99371.3 99371.7
          99372 99372.3 99372.7 99370.5 99370.6 99368.3 99368.9 99369.3 99369.7 99370.7 99370.7 99370.8
          99370.8 99370.9 99370.9 99370.6 99370.4 99370.2 99370 99370.1 99370.3 99369.8 99369.5 99368.5
          99369 99366.9 99367.8 99365.7 99364.2 99356.3 99359.7 99362.3 99367.5 99366.6 99370.4 99370.3
          99370 99369.7 99369.1 99363.5 99365.3 99361.2 99357.9 99353.3 99368 99366.2 99363.1 99369.6
          99366.8 99357.4 99354.2 99364.2 99356.8 99347.5 99346.4 99335.6 99345.6 99351.7 99337.5 99326.9
          99337.5 99326.9 99351.7 99345.6 99356.3 99359.7 99362.3 99365.7 99364.2 99361.2 99365.3 99363.5
          99366.6 99367.5 99357.9 99353.3 99346.4 99335.6 99364.2 99354.2 99347.5 99356.8 99369.6 99363.1
          99357.4 99366.8 99366.2 99368 99378.6 99379.8 99386.4 99378.5 99375.7 99381.2 99377.7 99409.6
          99399.3 99392.1 99386.9 99383.1 99380.2 99378 99376.4 99375.1 99373.3 99374 99374.9 99375.9
          99377.2 99369.1 99369.7 99370 99370.3 99370.4 99370.5 99370.6 99370.7 99370.7 99371.7 99372
          99372.3 99372.7 99374.1 99373.4 99372.8 99372.4 99372.1 99371.8 99371.6 99371.5 99371.3 99371.4
          99371.4 99371.6 99370.8 99370.8 99370.9 99370.9 99370.6 99370.4 99370.2 99370 99368.3 99368.9
          99369.3 99369.7 99367.8 99366.9 99368.5 99369 99369.8 99369.5 99370.3 99370.1 99370.5 99370.7
          99370.8 99371 99370.9 99370.7 99370.8 99370.9 99371 99371.1 99371.2 99371.2 99371.3 99371.4
          99371.2 99371.1 99371.3 99371.3 99371.5 99371.4 99371.6 99371.6 99371.5 99371.7 99371.7 99371.8
          99371.8 99371.7 99371.7 99371.8 99371.8 99371.6 99371.6 99371.5 99371.5 99371.4 99371.4 99371.5
          99371.5 99371.5 99371.6 99371.6 99371.7 99371.5 99371.6 99371.6 99371.7 99371.7 99371.8 99371.8
          99371.9 99371.8 99371.8 99371.7 99371.8 99371.9 99371.8 99371.7 99371.6 99371.6 99371.7 99371.5
          99371.5 99371.5 99371.4 99371.4 99371.4 99371.4 99371.4 99371.4 99371.3 99371.3 99371.2 99371.4
          99371.3 99371.3 99371.3 99371.2 99371.1 99371.1 99371 99371 99371.3 99371.3 99371.3 99371.4
          99371.4 99371.4 99371.4 99371.4 99371.4 99371.4 99371.4 99371.4 99371.4 99371.3 99371.3 99371.3
          99371.3 99371.3 99371.3 99371.4 99371.4 99371.4 99371.4 99371.4 99371.4 99371.5 99371.5 99371.5
          99371.7 99371.6 99371.6 99371.7 99371.8 99371.9 99371.8 99371.7 99371.8 99371.8 99371.9 99371.7
          99371.6 99371.6 99371.5 99371.5 99371.4 99371.5 99371.4 99371.5 99371.5 99371.6 99371.6 99371.5
          99371.6 99371.6 99371.7 99371.7 99371.8 99371.8 99371.8 99371.8 99371.7 99371.7 99371.8 99371.8
          99371.7 99371.7 99371.5 99371.6 99371.6 99371.4 99371.5 99371.3 99371.3 99371.1 99371.2 99371.4
          99371.3 99371.4 99371.3 99371.3 99371.2 99371.2 99371.2 99371.1 99371 99371.2 99371.1 99371.1
          99371 99371 99370.9 99370.8 99370.7 99370.9 99371 99370.8 99370.7 99370.5 99370.1 99370.3
          99369.5 99369.8 99369 99368.5 99366.9 99367.8 99369.7 99369.3 99368.9 99368.3 99370.5 99370.6
          99370.7 99370.7 99370.8 99370.8 99370 99370.2 99370.4 99370.6 99370.9 99370.9 99371.6 99371.4
          99371.4 99371.3 99371.5 99371.6 99371.8 99372.1 99372.4 99372.8 99373.4 99374.1 99372.7 99372.3
          99372 99371.7 99377.2 99375.9 99374.9 99374 99373.3 99375.1 99376.4 99378 99380.2 99383.1
          99386.9 99392.1 99399.3 99409.6 99377.7 99378.5 99386.4 99381.2 99375.7 99379.8 99378.6 99354.2
          99364.2 99356.8 99347.5 99363.1 99369.6 99366.8 99357.4 99335.6 99346.4 99353.3 99357.9 99366.2
          99368 99369.1 99369.7 99370 99370.3 99370.4 99367.5 99366.6 99363.5 99365.3 99361.2 99364.2
          99365.7 99362.3 99359.7 99356.3 99345.6 99351.7 99326.9 99337.5
        </DataArray>
        <DataArray type="Float32" Name="pressure_nonwetting" NumberOfComponents="1" format="ascii">
          100003 100003 100003 100003 100003 100003 100003 100003 100003 100003 100003 100003
          100003 100003 100003 100003 100003 100003 100003 100003 100003 100003 100003 100003
          100003 100003 100003 100003 100003 100003 100003 100003 100003 100003 100003 100003
          100003 100003 100003 100003 100003 100003 100003 100003 100003 100003 100003 100003
          100003 100003 100003 100003 100003 100003 100003 100003 100003 100003 100003 100003
          100003 100003 100003 100003 100003 100003 100003 100003 100003 100003 100003 100003
          100003 100003 100003 100003 100003 100003 100003 100003 100003 100003 100003 100003
          100003 100003 100003 100003 100003 100003 100003 100003 100003 100003 100003 100003
          100003 100003 100003 100003 100003 100003 100003 100003 100003 100003 100003 100003
          100003 100003 100003 100003 100003 100003 100003 100003 100003 100003 100003 100003
          100003 100003 100003 100003 100003 100003 100003 100003 100003 100003 100003 100003
          100003 100003 100003 100003 100003 100003 100003 100003 100003 100003 100003 100003
          100003 100003 100003 100003 100003 100003 100003 100003 100003 100003 100003 100003
          100003 100003 100003 100003 100003 100003 100003 100003 100003 100003 100003 100003
          100003 100003 100003 100003 100003 100003 100003 100003 100003 100003 100003 100003
          100003 100003 100003 100003 100003 100003 100003 100003 100003 100003 100003 100003
          100003 100003 100003 100003 100003 100003 100003 100003 100003 100003 100003 100003
          100003 100003 100003 100003 100003 100003 100003 100003 100003 100003 100003 100003
          100003 100003 100003 100003 100003 100003 100003 100003 100003 100003 100002 100002
          100002 100003 100002 100003 100002 100002 100002 100002 100002 100002 100002 100002
          100002 100002 100002 100002 100002 100002 100002 100002 100002 100002 100002 100002
          100002 100002 100002 100002 100002 100002 100002 100002 100002 100002 100002 100002
          100002 100002 100002 100002 100002 100002 100002 100002 100002 100002 100002 100002
          100002 100002 100002 100002 100002 100002 100002 100002 100002 100002 100002 100002
          100002 100002 100002 100002 100002 100002 100002 100002 100002 100002 100002 100002
          100002 100002 100002 100002 100002 100003 100002 100002 100002 100003 100003 100002
          100002 100002 100003 100002 100003 100002 100002 100002 100002 100002 100002 100002
          100002 100002 100002 100002 100002 100002 100002 100002 100002 100002 100002 100002
          100002 100002 100002 100002 100002 100002 100002 100002 100002 100002 100002 100002
          100002 100002 100002 100002 100002 100002 100002 100002 100002 100002 100002 100002
          100002 100002 100002 100002 100002 100002 100002 100002 100002 100002 100002 100002
          100002 100002 100002 100002 100002 100002 100002 100002 100002 100002 100002 100002
          100002 100002 100002 100002 100002 100002 100003 100002 100002 100002 100003 100003
          100003 100003 100003 100003 100003 100003 100003 100003 100003 100003 100003 100003
          100003 100003 100003 100003 100003 100003 100003 100003 100003 100003 100003 100003
          100003 100003 100003 100003 100003 100003 100003 100003 100003 100003 100003 100003
          100003 100003 100003 100003 100003 100003 100003 100003 100003 100003 100003 100003
          100003 100003 100003 100003 100003 100003 100003 100003 100003 100003 100003 100003
          100003 100003 100003 100003 100003 100003 100003 100003 100003 100003 100003 100003
          100003 100003 100003 100003 100003 100003 100003 100003 100003 100003 100003 100003
          100003 100003 100003 100003 100003 100003 100003 100003 100003 100003 100003 100003
          100003 100003 100003 100003 100003 100003 100003 100003 100003 100003 100003 100003
          100003 100003 100003 100003 100003 100003 100003 100003 100003 100003 100003 100003
          100003 100003 100003 100003 100003 100003 100003 100003 100003 100003 100003 100003
          100003 100003 100003 100003 100003 100003 100003 100003 100003 100003 100003 100003
          100003 100003 100003 100003 100003 100003 100003 100003 100003 100003 100003 100003
          100003 100003 100003 100003 100003 100003 100003 100003 100003 100003 100003 100003
          100003 100003 100003 100003 100003 100003 100003 100003 100003 100003 100003 100003
          100003 100003 100003 100003 100003 100003 100003 100003 100003 100003 100003 100003
          100003 100003 100003 100003 100003 100003 100003 100003 100003 100003 100003 100003
          100003 100003 100003 100003 100003 100003 100003 100003 100003 100003 100003 100003
          100003 100003 100003 100003 100003 100003 100003 100003 100003 100003 100003 100003
          100003 100003 100003 100003 100003 100003 100003 100003 100003 100003 100003 100003
          100003 100003 100003 100003 100003 100003 100003 100003 100003 100003 100003 100003
          100003 100003 100003 100003 100003 100003 100003 100003 100003 100003 100003 100003
          100003 100003 100003 100003 100003 100003 100003 100003 100003 100003 100003 100003
          100003 100003 100003 100003 100003 100003 100003 100003 100003 100003 100003 100003
          100003 100003 100003 100003 100003 100003 100003 100003 100003 100003 100003 100003
          100003 100003 100003 100003 100003 100003 100003 100003 100003 100003 100003 100003
          100003 100003 100003 100003 100003 100003 100003 100003 100003 100003 100003 100003
          100003 100003 100003 100003 100003 100003 100003 100003 100003 100003 100003 100003
          100003 100003 100003 100003 100003 100003 100003 100003 100003 100003 100003 100003
          100003 100003 100003 100003 100003 100003 100003 100003 100003 100003 100003 100003
          100003 100003 100003 100003 100003 100003 100003 100003 100003 100003 100003 100003
          100003 100003 100003 100003 100003 100003 100003 100003 100003 100003 100003 100003
          100003 100003 100003 100003 100003 100003 100003 100003 100003 100003 100003 100003
          100003 100003 100003 100003 100003 100003 100003 100003 100003 100003 100003 100003
          100003 100003 100003 100003 100003 100003 100003 100003 100003 100003 100003 100003
          100003 100003 100003 100003 100003 100003 100003 100003 100003 100003 100003 100003
          100003 100003 100003 100003 100003 100003 100003 100003 100003 100003 100003 100003
          100003 100003 100003 100003 100003 100003 100003 100003 100003 100003 100003 100003
          100003 100003 100003 100003 100003 100003 100003 100003 100003 100003 100003 100003
          100003 100003 100003 100003 100003 100003 100003 100003 100003 100003 100003 100003
          100003 100003 100003 100003 100003 100003 100003 100003 100003 100003 100003 100003
          100003 100003 100003 100003 100003 100003 100003 100003 100003 100003 100003 100003
          100003 100003 100003 100003 100003 100003 100003 100003 100003 100003 100003 100003
          100003 100003 100003 100003 100003 100003 100003 100003 100003 100003 100003 100003
          100003 100003 100003 100003 100003 100003 100003 100003 100003 100003 100003 100003
          100003 100003 100003 100003 100003 100003 100003 100003 100003 100003 100003 100003
          100003 100003 100003 100003 100003 100003 100003 100003 100003 100003 100003 100003
          100003 100003 100003 100003 100003 100003 100003 100003 100003 100003 100003 100003
          100003 100003 100003 100003 100003 100003 100003 100003 100003 100003 100003 100003
          100003 100003 100003 100003 100003 100003 100003 100003 100003 100003 100003 100003
          100003 100003 100003 100003 100003 100003 100003 100003 100003 100003 100003 100003
          100003 100003 100003 100003 100003 100003 100003 100003 100003 100003 100003 100003
          100003 100003 100003 100003 100003 100003 100003 100003 100003 100003 100003 100003
          100003 100003 100003 100003 100003 100003 100003 100003 100003 100003 100003 100003
          100003 100003 100003 100003 100003 100003 100003 100003 100003 100003 100003 100003
          100003 100003 100003 100003 100003 100003 100003 100003 100003 100003 100003 100003
          100003 100003 100002 100003 100002 100002 100002 100002 100002 100002 100002 100002
          100002 100002 100002 100002 100002 100002 100002 100002 100002 100002 100002 100003
          100002 100003 100002 100002 100002 100003 100003 100002 100002 100002 100002 100002
          100002 100002 100002 100002 100002 100002 100002 100002 100002 100002 100002 100002
          100002 100002 100002 100002 100002 100002 100002 100002 100002 100002 100002 100002
          100002 100002 100002 100002 100002 100002 100002 100002 100002 100002 100002 100002
          100002 100002 100002 100002 100002 100002 100002 100002 100002 100002 100002 100002
          100002 100002 100002 100002 100002 100002 100002 100002 100002 100002 100002 100002
          100002 100002 100002 100002 100002 100002 100002 100002 100002 100002 100002 100002
          100002 100002 100002 100003 100002 100002 100002 100002 100003 100002 100002 100002
          100002 100002 100002 100002 100002 100002 100002 100002 100002 100002 100002 100002
          100003 100003 100002 100002 100002 100002 100003 100002 100002 100002 100002 100002
          100002 100002 100002 100002 100002 100002 100002 100002 100002 100002 100002 100002
          100002 100002 100002 100002 100002 100002 100002 100002 100002 100002 100002 100002
          100002 100002 100002 100002 100002 100002 100002 100002 100002 100002 100002 100002
          100002 100002 100002 100002 100002 100001 100001 100002 100001 100001 100001 100001
          100001 100001 100001 100001 100002 100001 100001 100001 100001 100001 100001 100001
          100001 100001 100001 100001 100001 100001 100001 100001 100001 100001 100001 100001
          100001 100001 100001 100001 100001 100001 100001 100001 100001 100001 100001 100001
          100001 100001 100001 100001 100001 100001 100001 100001 100001 100001 100001 100001
          100001 100001 100001 100001 100001 100001 100002 100001 100001 100001 100001 100001
          100001 100002 100002 100002 100002 100002 100002 100002 100002 100002 100002 100002
          100002 100002 100002 100001 100001 100001 100001 100002 100001 100001 100001 100001
          100001 100001 100001 100001 100002 100002 100002 100002 100002 100002 100002 100002
          100002 100002 100002 100002 100002 100002 100002 100002 100002 100002 100001 100001
          100001 100001 100001 100001 100001 100001 100002 100001 100001 100001 100001 100001
          100001 100001 100001 100001 100001 100001 100001 100001 100001 100001 100001 100001
          100001 100001 100001 100001 100001 100001 100001 100001 100001 100001 100001 100001
          100001 100001 100001 100001 100001 100001 100001 100001 100001 100001 100001 100001
          100001 100001 100001 100001 100001 100001 100001 100001 100001 100001 100000 100000
          100001 100001 100000 100000 100000 100000 100001 100001 100001 100001 100001 100001
          100001 100001 100001 100001 100001 100001 100001 100001 100001 100001 100001 100001
          100001 100001 100000 100000 100000 100000 100001 100001 100000 100000 100000 100000
          100000 100000 100000 100000 100000 100000 100000 100000 100000 100000 100000 100000
          100000 100000 100000 100000 100000 100000 100000 100000 100000 100000 100000 100000
          100000 100000 100000 100000 100000 100000 100000 100000 100000 100000 100000 100000
          100000 100000 100000 100000 100000 100000 100000 100000 100000 100000 100000 100000
          100000 100000 100000 100000 100000 100000 100000 100000 100000 100000 100000 100000
          100000 100000 100000 100000 100000 100000 100000 100000 100000 100000 100000 100000
          100000 100001 100001 100001 100001 100001 100001 100001 100001 100001 100001 100001
          100001 100000 100000 100000 100000 100000 100000 100001 100001 100001 100001 100001
          100001 100001 100001 100001 100001 100001 100001 100001 100001 100001 100001 100001