<?xml version="1.0"?>
<VTKFile type="UnstructuredGrid" version="0.1" byte_order="LittleEndian">
  <UnstructuredGrid>
    <Piece NumberOfCells="350" NumberOfPoints="396">
      <CellData Scalars="pressure_wetting">
        <DataArray type="Float32" Name="pressure_wetting" NumberOfComponents="1" format="ascii">
          99137.1 99080.8 99054.3 99045.2 99043.8 99046.8 99055.6 99073.7 99102.6 99139.4 99178.2 99214.5
          99245.8 99271.6 99292.3 99308.7 99321.5 99331.5 99339.1 99345 99349.4 99352.7 99355.1 99356.8
          99357.9 99358.6 99358.9 99358.8 99358.3 99357.3 99355.4 99352.4 99347.2 99338.3 99321.5 99137.1
          99080.8 99054.3 99045.2 99043.8 99046.8 99055.6 99073.7 99102.6 99139.4 99178.3 99214.5 99245.8
          99271.6 99292.4 99308.8 99321.6 99331.5 99339.2 99345.1 99349.5 99352.8 99355.3 99357.1 99358.4
          99359.4 99360.1 99360.6 99361.1 99361.5 99361.9 99362.3 99362.3 99360.8 99353.8 99137.1 99080.8
          99054.3 99045.2 99043.8 99046.8 99055.6 99073.7 99102.6 99139.4 99178.3 99214.5 99245.8 99271.6
          99292.4 99308.8 99321.6 99331.6 99339.2 99345.1 99349.6 99352.9 99355.4 99357.3 99358.7 99359.9
          99360.9 99361.9 99363 99364.7 99367.2 99371.1 99377.3 99387.2 99402.8 99137.1 99080.8 99054.3
          99045.2 99043.8 99046.8 99055.6 99073.7 99102.6 99139.4 99178.3 99214.5 99245.8 99271.6 99292.4
          99308.8 99321.6 99331.5 99339.2 99345.1 99349.5 99352.8 99355.3 99357.1 99358.4 99359.4 99360.1
          99360.6 99361.1 99361.5 99361.9 99362.3 99362.3 99360.8 99353.8 99137.1 99080.8 99054.3 99045.2
          99043.8 99046.8 99055.6 99073.7 99102.6 99139.4 99178.2 99214.5 99245.8 99271.6 99292.3 99308.7
          99321.5 99331.5 99339.1 99345 99349.4 99352.7 99355.1 99356.8 99357.9 99358.6 99358.9 99358.8
          99358.3 99357.3 99355.4 99352.4 99347.2 99338.3 99321.5 99137.1 99080.8 99054.3 99045.2 99043.8
          99046.8 99055.6 99073.7 99102.6 99139.4 99178.2 99214.5 99245.8 99271.6 99292.3 99308.7 99321.5
          99331.5 99339.1 99345 99349.4 99352.7 99355.1 99356.8 99357.9 99358.6 99358.9 99358.8 99358.3
          99357.3 99355.4 99352.4 99347.2 99338.3 99321.5 99137.1 99080.8 99054.3 99045.2 99043.8 99046.8
          99055.6 99073.7 99102.6 99139.4 99178.3 99214.5 99245.8 99271.6 99292.4 99308.8 99321.6 99331.5
          99339.2 99345.1 99349.5 99352.8 99355.3 99357.1 99358.4 99359.4 99360.1 99360.6 99361.1 99361.5
          99361.9 99362.3 99362.3 99360.8 99353.8 99137.1 99080.8 99054.3 99045.2 99043.8 99046.8 99055.6
          99073.7 99102.6 99139.4 99178.3 99214.5 99245.8 99271.6 99292.4 99308.8 99321.6 99331.6 99339.2
          99345.1 99349.6 99352.9 99355.4 99357.3 99358.7 99359.9 99360.9 99361.9 99363 99364.7 99367.2
          99371.1 99377.3 99387.2 99402.8 99137.1 99080.8 99054.3 99045.2 99043.8 99046.8 99055.6 99073.7
          99102.6 99139.4 99178.3 99214.5 99245.8 99271.6 99292.4 99308.8 99321.6 99331.5 99339.2 99345.1
          99349.5 99352.8 99355.3 99357.1 99358.4 99359.4 99360.1 99360.6 99361.1 99361.5 99361.9 99362.3
          99362.3 99360.8 99353.8 99137.1 99080.8 99054.3 99045.2 99043.8 99046.8 99055.6 99073.7 99102.6
          99139.4 99178.2 99214.5 99245.8 99271.6 99292.3 99308.7 99321.5 99331.5 99339.1 99345 99349.4
          99352.7 99355.1 99356.8 99357.9 99358.6 99358.9 99358.8 99358.3 99357.3 99355.4 99352.4 99347.2
          99338.3 99321.5
        </DataArray>
        <DataArray type="Float32" Name="pressure_nonwetting" NumberOfComponents="1" format="ascii">
          100003 100003 100003 100003 100003 100003 100003 100003 100003 100002 100002 100002
          100002 100002 100002 100002 100002 100002 100002 100002 100001 100001 100001 100001
          100001 100001 100001 100001 100001 100000 100000 100000 100000 100000 100000 100003
          100003 100003 100003 100003 100003 100003 100003 100003 100002 100002 100002 100002
          100002 100002 100002 100002 100002 100002 100002 100001 100001 100001 100001 100001
          100001 100001 100001 100001 100000 100000 100000 100000 100000 100000 100003 100003
          100003 100003 100003 100003 100003 100003 100003 100002 100002 100002 100002 100002
          100002 100002 100002 100002 100002 100002 100001 100001 100001 100001 100001 100001
          100001 100001 100001 100000 100000 100000 100000 100000 100000 100003 100003 100003
          100003 100003 100003 100003 100003 100003 100002 100002 100002 100002 100002 100002
          100002 100002 100002 100002 100002 100001 100001 100001 100001 100001 100001 100001
          100001 100001 100000 100000 100000 100000 100000 100000 100003 100003 100003 100003
          100003 100003 100003 100003 100003 100002 100002 100002 100002 100002 100002 100002
          100002 100002 100002 100002 100001 100001 100001 100001 100001 100001 100001 100001
          100001 100000 100000 100000 100000 100000 100000 100003 100003 100003 100003 100003
          100003 100003 100003 100003 100002 100002 100002 100002 100002 100002 100002 100002
          100002 100002 100002 100001 100001 100001 100001 100001 100001 100001 100001 100001
          100000 100000 100000 100000 100000 100000 100003 100003 100003 100003 100003 100003
          100003 100003 100003 100002 100002 100002 100002 100002 100002 100002 100002 100002
          100002 100002 100001 100001 100001 100001 100001 100001 100001 100001 100001 100000
          100000 100000 100000 100000 100000 100003 100003 100003 100003 100003 100003 100003
          100003 100003 100002 100002 100002 100002 100002 100002 100002 100002 100002 100002
          100002 100001 100001 100001 100001 100001 100001 100001 100001 100001 100000 100000
          100000 100000 100000 100000 100003 100003 100003 100003 100003 100003 100003 100003
          100003 100002 100002 100002 100002 100002 100002 100002 100002 100002 100002 100002
          100001 100001 100001 100001 100001 100001 100001 100001 100001 100000 100000 100000
          100000 100000 100000 100003 100003 100003 100003 100003 100003 100003 100003 100003
          100002 100002 100002 100002 100002 100002 100002 100002 100002 100002 100002 100001
          100001 100001 100001 100001 100001 100001 100001 100001 100000 100000 100000 100000
          100000 100000
        </DataArray>
        <DataArray type="Float32" Name="density_wetting" NumberOfComponents="1" format="ascii">
          1000 1000 1000 1000 1000 1000 1000 1000 1000 1000 1000 1000
          1000 1000 1000 1000 1000 1000 1000 1000 1000 1000 1000 1000
          1000 1000 1000 1000 1000 1000 1000 1000 1000 1000 1000 1000
          1000 1000 1000 1000 1000 1000 1000 1000 1000 1000 1000 1000
          1000 1000 1000 1000 1000 1000 1000 1000 1000 1000 1000 1000
          1000 1000 1000 1000 1000 1000 1000 1000 1000 1000 1000 1000
          1000 1000 1000 1000 1000 1000 1000 1000 1000 1000 1000 1000
          1000 1000 1000 1000 1000 1000 1000 1000 1000 1000 1000 1000
          1000 1000 1000 1000 1000 1000 1000 1000 1000 1000 1000 1000
          1000 1000 1000 1000 1000 1000 1000 1000 1000 1000 1000 1000
          1000 1000 1000 1000 1000 1000 1000 1000 1000 1000 1000 1000
          1000 1000 1000 1000 1000 1000 1000 1000 1000 1000 1000 1000
          1000 1000 1000 1000 1000 1000 1000 1000 1000 1000 1000 1000
          1000 1000 1000 1000 1000 1000 1000 1000 1000 1000 1000 1000
          1000 1000 1000 1000 1000 1000 1000 1000 1000 1000 1000 1000
          1000 1000 1000 1000 1000 1000 1000 1000 1000 1000 1000 1000
          1000 1000 1000 1000 1000 1000 1000 1000 1000 1000 1000 1000
          1000 1000 1000 1000 1000 1000 1000 1000 1000 1000 1000 1000
          1000 1000 1000 1000 1000 1000 1000 1000 1000 1000 1000 1000
          1000 1000 1000 1000 1000 1000 1000 1000 1000 1000 1000 1000
          1000 1000 1000 1000 1000 1000 1000 1000 1000 1000 1000 1000
          1000 1000 1000 1000 1000 1000 1000 1000 1000 1000 1000 1000
          1000 1000 1000 1000 1000 1000 1000 1000 1000 1000 1000 1000
          1000 1000 1000 1000 1000 1000 1000 1000 1000 1000 1000 1000
          1000 1000 1000 1000 1000 1000 1000 1000 1000 1000 1000 1000
          1000 1000 1000 1000 1000 1000 1000 1000 1000 1000 1000 1000
          1000 1000 1000 1000 1000 1000 1000 1000 1000 1000 1000 1000
          1000 1000 1000 1000 1000 1000 1000 1000 1000 1000 1000 1000
          1000 1000 1000 1000 1000 1000 1000 1000 1000 1000 1000 1000
          1000 1000
        </DataArray>
        <DataArray type="Float32" Name="density_nonwetting" NumberOfComponents="1" format="ascii">
          1.1882 1.1882 1.1882 1.18819 1.18819 1.18819 1.18819 1.18819 1.18819 1.18819 1.18819 1.18818
          1.18818 1.18818 1.18818 1.18818 1.18818 1.18818 1.18818 1.18818 1.18817 1.18817 1.18817 1.18817
          1.18817 1.18817 1.18817 1.18817 1.18816 1.18816 1.18816 1.18816 1.18816 1.18816 1.18816 1.1882
          1.1882 1.1882 1.18819 1.18819 1.18819 1.18819 1.18819 1.18819 1.18819 1.18819 1.18818 1.18818
          1.18818 1.18818 1.18818 1.18818 1.18818 1.18818 1.18818 1.18817 1.18817 1.18817 1.18817 1.18817
          1.18817 1.18817 1.18817 1.18816 1.18816 1.18816 1.18816 1.18816 1.18816 1.18816 1.1882 1.1882
          1.1882 1.18819 1.18819 1.18819 1.18819 1.18819 1.18819 1.18819 1.18819 1.18818 1.18818 1.18818
          1.18818 1.18818 1.18818 1.18818 1.18818 1.18818 1.18817 1.18817 1.18817 1.18817 1.18817 1.18817
          1.18817 1.18817 1.18816 1.18816 1.18816 1.18816 1.18816 1.18816 1.18816 1.1882 1.1882 1.1882
          1.18819 1.18819 1.18819 1.18819 1.18819 1.18819 1.18819 1.18819 1.18818 1.18818 1.18818 1.18818
          1.18818 1.18818 1.18818 1.18818 1.18818 1.18817 1.18817 1.18817 1.18817 1.18817 1.18817 1.18817
          1.18817 1.18816 1.18816 1.18816 1.18816 1.18816 1.18816 1.18816 1.1882 1.1882 1.1882 1.18819
          1.18819 1.18819 1.18819 1.18819 1.18819 1.18819 1.18819 1.18818 1.18818 1.18818 1.18818 1.18818
          1.18818 1.18818 1.18818 1.18818 1.18817 1.18817 1.18817 1.18817 1.18817 1.18817 1.18817 1.18817
          1.18816 1.18816 1.18816 1.18816 1.18816 1.18816 1.18816 1.1882 1.1882 1.1882 1.18819 1.18819
          1.18819 1.18819 1.18819 1.18819 1.18819 1.18819 1.18818 1.18818 1.18818 1.18818 1.18818 1.18818
          1.18818 1.18818 1.18818 1.18817 1.18817 1.18817 1.18817 1.18817 1.18817 1.18817 1.18817 1.18816
          1.18816 1.18816 1.18816 1.18816 1.18816 1.18816 1.1882 1.1882 1.1882 1.18819 1.18819 1.18819
          1.18819 1.18819 1.18819 1.18819 1.18819 1.18818 1.18818 1.18818 1.18818 1.18818 1.18818 1.18818
          1.18818 1.18818 1.18817 1.18817 1.18817 1.18817 1.18817 1.18817 1.18817 1.18817 1.18816 1.18816
          1.18816 1.18816 1.18816 1.18816 1.18816 1.1882 1.1882 1.1882 1.18819 1.18819 1.18819 1.18819
          1.18819 1.18819 1.18819 1.18819 1.18818 1.18818 1.18818 1.18818 1.18818 1.18818 1.18818 1.18818
          1.18818 1.18817 1.18817 1.18817 1.18817 1.18817 1.18817 1.18817 1.18817 1.18816 1.18816 1.18816
          1.18816 1.18816 1.18816 1.18816 1.1882 1.1882 1.1882 1.18819 1.18819 1.18819 1.18819 1.18819
          1.18819 1.18819 1.18819 1.18818 1.18818 1.18818 1.18818 1.18818 1.18818 1.18818 1.18818 1.18818
          1.18817 1.18817 1.18817 1.18817 1.18817 1.18817 1.18817 1.18817 1.18816 1.18816 1.18816 1.18816
          1.18816 1.18816 1.18816 1.1882 1.1882 1.1882 1.18819 1.18819 1.18819 1.18819 1.18819 1.18819
          1.18819 1.18819 1.18818 1.18818 1.18818 1.18818 1.18818 1.18818 1.18818 1.18818 1.18818 1.18817
          1.18817 1.18817 1.18817 1.18817 1.18817 1.18817 1.18817 1.18816 1.18816 1.18816 1.18816 1.18816
          1.18816 1.18816
        </DataArray>
        <DataArray type="Float32" Name="saturation_wetting" NumberOfComponents="1" format="ascii">
          0.0143897 0.0116184 0.0105581 0.0102062 0.0101541 0.0102782 0.0106269 0.011348 0.012632 0.0145697 0.0170844 0.0199837
          0.0230399 0.0260461 0.028847 0.0313486 0.0335089 0.0353234 0.0368115 0.0380062 0.0389462 0.0396711 0.0402175 0.0406177
          0.0408979 0.0410773 0.0411675 0.0411708 0.0410779 0.0408628 0.0404752 0.0398244 0.0387481 0.0369447 0.0338246 0.0143897
          0.0116184 0.0105581 0.0102062 0.0101541 0.0102783 0.0106271 0.0113484 0.0126327 0.0145709 0.0170862 0.019986 0.023043
          0.0260499 0.0288518 0.0313544 0.0335161 0.0353327 0.0368238 0.038023 0.0389699 0.0397053 0.040268 0.0406934 0.0410125
          0.0412522 0.0414356 0.0415826 0.04171 0.0418312 0.0419519 0.0420582 0.0420798 0.0417687 0.040211 0.0143897 0.0116184
          0.0105581 0.0102062 0.0101541 0.0102783 0.0106272 0.0113486 0.0126331 0.0145716 0.0170872 0.0199875 0.0230449 0.0260523
          0.0288547 0.031358 0.0335206 0.0353385 0.0368315 0.0380335 0.0389847 0.0397267 0.0402998 0.0407415 0.0410863 0.0413668
          0.0416156 0.0418685 0.0421701 0.0425828 0.043202 0.0441838 0.0457938 0.0485032 0.0534573 0.0143897 0.0116184 0.0105581
          0.0102062 0.0101541 0.0102783 0.0106271 0.0113484 0.0126327 0.0145709 0.0170862 0.019986 0.023043 0.0260499 0.0288518
          0.0313544 0.0335161 0.0353327 0.0368238 0.038023 0.0389699 0.0397053 0.040268 0.0406934 0.0410125 0.0412522 0.0414356
          0.0415826 0.04171 0.0418312 0.0419519 0.0420582 0.0420798 0.0417687 0.040211 0.0143897 0.0116184 0.0105581 0.0102062
          0.0101541 0.0102782 0.0106269 0.011348 0.012632 0.0145697 0.0170844 0.0199837 0.0230399 0.0260461 0.028847 0.0313486
          0.0335089 0.0353234 0.0368115 0.0380062 0.0389462 0.0396711 0.0402175 0.0406177 0.0408979 0.0410773 0.0411675 0.0411708
          0.0410779 0.0408628 0.0404752 0.0398244 0.0387481 0.0369447 0.0338246 0.0143897 0.0116184 0.0105581 0.0102062 0.0101541
          0.0102782 0.0106269 0.011348 0.012632 0.0145697 0.0170844 0.0199837 0.0230399 0.0260461 0.028847 0.0313486 0.0335089
          0.0353234 0.0368115 0.0380062 0.0389462 0.0396711 0.0402175 0.0406177 0.0408979 0.0410773 0.0411675 0.0411708 0.0410779
          0.0408628 0.0404752 0.0398244 0.0387481 0.0369447 0.0338246 0.0143897 0.0116184 0.0105581 0.0102062 0.0101541 0.0102783
          0.0106271 0.0113484 0.0126327 0.0145709 0.0170862 0.019986 0.023043 0.0260499 0.0288518 0.0313544 0.0335161 0.0353327
          0.0368238 0.038023 0.0389699 0.0397053 0.040268 0.0406934 0.0410125 0.0412522 0.0414356 0.0415826 0.04171 0.0418312
          0.0419519 0.0420582 0.0420798 0.0417687 0.040211 0.0143897 0.0116184 0.0105581 0.0102062 0.0101541 0.0102783 0.0106272
          0.0113486 0.0126331 0.0145716 0.0170872 0.0199875 0.0230449 0.0260523 0.0288547 0.031358 0.0335206 0.0353385 0.0368315
          0.0380335 0.0389847 0.0397267 0.0402998 0.0407415 0.0410863 0.0413668 0.0416156 0.0418685 0.0421701 0.0425828 0.043202
          0.0441838 0.0457938 0.0485032 0.0534573 0.0143897 0.0116184 0.0105581 0.0102062 0.0101541 0.0102783 0.0106271 0.0113484
          0.0126327 0.0145709 0.0170862 0.019986 0.023043 0.0260499 0.0288518 0.0313544 0.0335161 0.0353327 0.0368238 0.038023
          0.0389699 0.0397053 0.040268 0.0406934 0.0410125 0.0412522 0.0414356 0.0415826 0.04171 0.0418312 0.0419519 0.0420582
          0.0420798 0.0417687 0.040211 0.0143897 0.0116184 0.0105581 0.0102062 0.0101541 0.0102782 0.0106269 0.011348 0.012632
          0.0145697 0.0170844 0.0199837 0.0230399 0.0260461 0.028847 0.0313486 0.0335089 0.0353234 0.0368115 0.0380062 0.0389462
          0.0396711 0.0402175 0.0406177 0.0408979 0.0410773 0.0411675 0.0411708 0.0410779 0.0408628 0.0404752 0.0398244 0.0387481
          0.0369447 0.0338246
        </DataArray>
        <DataArray type="Float32" Name="saturation_nonwetting" NumberOfComponents="1" format="ascii">
          0.98561 0.988382 0.989442 0.989794 0.989846 0.989722 0.989373 0.988652 0.987368 0.98543 0.982916 0.980016
          0.97696 0.973954 0.971153 0.968651 0.966491 0.964677 0.963188 0.961994 0.961054 0.960329 0.959782 0.959382
          0.959102 0.958923 0.958833 0.958829 0.958922 0.959137 0.959525 0.960176 0.961252 0.963055 0.966175 0.98561
          0.988382 0.989442 0.989794 0.989846 0.989722 0.989373 0.988652 0.987367 0.985429 0.982914 0.980014 0.976957
          0.97395 0.971148 0.968646 0.966484 0.964667 0.963176 0.961977 0.96103 0.960295 0.959732 0.959307 0.958987
          0.958748 0.958564 0.958417 0.95829 0.958169 0.958048 0.957942 0.95792 0.958231 0.959789 0.98561 0.988382
          0.989442 0.989794 0.989846 0.989722 0.989373 0.988651 0.987367 0.985428 0.982913 0.980012 0.976955 0.973948
          0.971145 0.968642 0.966479 0.964662 0.963169 0.961967 0.961015 0.960273 0.9597 0.959258 0.958914 0.958633
          0.958384 0.958131 0.95783 0.957417 0.956798 0.955816 0.954206 0.951497 0.946543 0.98561 0.988382 0.989442
          0.989794 0.989846 0.989722 0.989373 0.988652 0.987367 0.985429 0.982914 0.980014 0.976957 0.97395 0.971148
          0.968646 0.966484 0.964667 0.963176 0.961977 0.96103 0.960295 0.959732 0.959307 0.958987 0.958748 0.958564
          0.958417 0.95829 0.958169 0.958048 0.957942 0.95792 0.958231 0.959789 0.98561 0.988382 0.989442 0.989794
          0.989846 0.989722 0.989373 0.988652 0.987368 0.98543 0.982916 0.980016 0.97696 0.973954 0.971153 0.968651
          0.966491 0.964677 0.963188 0.961994 0.961054 0.960329 0.959782 0.959382 0.959102 0.958923 0.958833 0.958829
          0.958922 0.959137 0.959525 0.960176 0.961252 0.963055 0.966175 0.98561 0.988382 0.989442 0.989794 0.989846
          0.989722 0.989373 0.988652 0.987368 0.98543 0.982916 0.980016 0.97696 0.973954 0.971153 0.968651 0.966491
          0.964677 0.963188 0.961994 0.961054 0.960329 0.959782 0.959382 0.959102 0.958923 0.958833 0.958829 0.958922
          0.959137 0.959525 0.960176 0.961252 0.963055 0.966175 0.98561 0.988382 0.989442 0.989794 0.989846 0.989722
          0.989373 0.988652 0.987367 0.985429 0.982914 0.980014 0.976957 0.97395 0.971148 0.968646 0.966484 0.964667
          0.963176 0.961977 0.96103 0.960295 0.959732 0.959307 0.958987 0.958748 0.958564 0.958417 0.95829 0.958169
          0.958048 0.957942 0.95792 0.958231 0.959789 0.98561 0.988382 0.989442 0.989794 0.989846 0.989722 0.989373
          0.988651 0.987367 0.985428 0.982913 0.980012 0.976955 0.973948 0.971145 0.968642 0.966479 0.964662 0.963169
          0.961967 0.961015 0.960273 0.9597 0.959258 0.958914 0.958633 0.958384 0.958131 0.95783 0.957417 0.956798
          0.955816 0.954206 0.951497 0.946543 0.98561 0.988382 0.989442 0.989794 0.989846 0.989722 0.989373 0.988652
          0.987367 0.985429 0.982914 0.980014 0.976957 0.97395 0.971148 0.968646 0.966484 0.964667 0.963176 0.961977
          0.96103 0.960295 0.959732 0.959307 0.958987 0.958748 0.958564 0.958417 0.95829 0.958169 0.958048 0.957942
          0.95792 0.958231 0.959789 0.98561 0.988382 0.989442 0.989794 0.989846 0.989722 0.989373 0.988652 0.987368
          0.98543 0.982916 0.980016 0.97696 0.973954 0.971153 0.968651 0.966491 0.964677 0.963188 0.961994 0.961054
          0.960329 0.959782 0.959382 0.959102 0.958923 0.958833 0.958829 0.958922 0.959137 0.959525 0.960176 0.961252
          0.963055 0.966175
        </DataArray>
        <DataArray type="Float32" Name="relativePerm_wetting" NumberOfComponents="1" format="ascii">
          1.72391e-06 8.51181e-07 6.17934e-07 5.51243e-07 5.41796e-07 5.64477e-07 6.31572e-07 7.86906e-07 1.12345e-06 1.79572e-06 3.01291e-06 4.98966e-06
          7.85997e-06 1.16004e-05 1.60195e-05 2.08166e-05 2.56655e-05 3.02822e-05 3.44612e-05 3.80838e-05 4.11079e-05 4.35469e-05 4.54487e-05 4.68764e-05
          4.78935e-05 4.85526e-05 4.88864e-05 4.88988e-05 4.85548e-05 4.77653e-05 4.63645e-05 4.4075e-05 4.04575e-05 3.48528e-05 2.63978e-05 1.72391e-06
          8.51182e-07 6.17935e-07 5.51244e-07 5.418e-07 5.64487e-07 6.31602e-07 7.86985e-07 1.12365e-06 1.79618e-06 3.01389e-06 4.99156e-06 7.8633e-06
          1.16058e-05 1.60278e-05 2.08287e-05 2.5683e-05 3.03073e-05 3.44973e-05 3.81366e-05 4.11861e-05 4.36644e-05 4.56273e-05 4.71498e-05 4.83141e-05
          4.92013e-05 4.98874e-05 5.04418e-05 5.09259e-05 5.13891e-05 5.18533e-05 5.22646e-05 5.23482e-05 5.11497e-05 4.53738e-05 1.72391e-06 8.51182e-07
          6.17935e-07 5.51245e-07 5.41802e-07 5.64494e-07 6.31621e-07 7.87035e-07 1.12378e-06 1.79647e-06 3.0145e-06 4.99273e-06 7.86536e-06 1.16092e-05
          1.60329e-05 2.08362e-05 2.56938e-05 3.03228e-05 3.45197e-05 3.81694e-05 4.12349e-05 4.37381e-05 4.574e-05 4.7324e-05 4.85859e-05 4.96291e-05
          5.05669e-05 5.15323e-05 5.26998e-05 5.43258e-05 5.68284e-05 6.09532e-05 6.81455e-05 8.14915e-05 0.000108502 1.72391e-06 8.51182e-07 6.17935e-07
          5.51244e-07 5.418e-07 5.64487e-07 6.31602e-07 7.86985e-07 1.12365e-06 1.79618e-06 3.01389e-06 4.99156e-06 7.8633e-06 1.16058e-05 1.60278e-05
          2.08287e-05 2.5683e-05 3.03073e-05 3.44973e-05 3.81366e-05 4.11861e-05 4.36644e-05 4.56273e-05 4.71498e-05 4.83141e-05 4.92013e-05 4.98874e-05
          5.04418e-05 5.09259e-05 5.13891e-05 5.18533e-05 5.22646e-05 5.23482e-05 5.11497e-05 4.53738e-05 1.72391e-06 8.51181e-07 6.17934e-07 5.51243e-07
          5.41796e-07 5.64477e-07 6.31572e-07 7.86906e-07 1.12345e-06 1.79572e-06 3.01291e-06 4.98966e-06 7.85997e-06 1.16004e-05 1.60195e-05 2.08166e-05
          2.56655e-05 3.02822e-05 3.44612e-05 3.80838e-05 4.11079e-05 4.35469e-05 4.54487e-05 4.68764e-05 4.78935e-05 4.85526e-05 4.88864e-05 4.88988e-05
          4.85548e-05 4.77653e-05 4.63645e-05 4.4075e-05 4.04575e-05 3.48528e-05 2.63978e-05 1.72391e-06 8.51181e-07 6.17934e-07 5.51243e-07 5.41796e-07
          5.64477e-07 6.31572e-07 7.86906e-07 1.12345e-06 1.79572e-06 3.01291e-06 4.98966e-06 7.85997e-06 1.16004e-05 1.60195e-05 2.08166e-05 2.56655e-05
          3.02822e-05 3.44612e-05 3.80838e-05 4.11079e-05 4.35469e-05 4.54487e-05 4.68764e-05 4.78935e-05 4.85526e-05 4.88864e-05 4.88988e-05 4.85548e-05
          4.77653e-05 4.63645e-05 4.4075e-05 4.04575e-05 3.48528e-05 2.63978e-05 1.72391e-06 8.51182e-07 6.17935e-07 5.51244e-07 5.418e-07 5.64487e-07
          6.31602e-07 7.86985e-07 1.12365e-06 1.79618e-06 3.01389e-06 4.99156e-06 7.8633e-06 1.16058e-05 1.60278e-05 2.08287e-05 2.5683e-05 3.03073e-05
          3.44973e-05 3.81366e-05 4.11861e-05 4.36644e-05 4.56273e-05 4.71498e-05 4.83141e-05 4.92013e-05 4.98874e-05 5.04418e-05 5.09259e-05 5.13891e-05
          5.18533e-05 5.22646e-05 5.23482e-05 5.11497e-05 4.53738e-05 1.72391e-06 8.51182e-07 6.17935e-07 5.51245e-07 5.41802e-07 5.64494e-07 6.31621e-07
          7.87035e-07 1.12378e-06 1.79647e-06 3.0145e-06 4.99273e-06 7.86536e-06 1.16092e-05 1.60329e-05 2.08362e-05 2.56938e-05 3.03228e-05 3.45197e-05
          3.81694e-05 4.12349e-05 4.37381e-05 4.574e-05 4.7324e-05 4.85859e-05 4.96291e-05 5.05669e-05 5.15323e-05 5.26998e-05 5.43258e-05 5.68284e-05
          6.09532e-05 6.81455e-05 8.14915e-05 0.000108502 1.72391e-06 8.51182e-07 6.17935e-07 5.51244e-07 5.418e-07 5.64487e-07 6.31602e-07 7.86985e-07
          1.12365e-06 1.79618e-06 3.01389e-06 4.99156e-06 7.8633e-06 1.16058e-05 1.60278e-05 2.08287e-05 2.5683e-05 3.03073e-05 3.44973e-05 3.81366e-05
          4.11861e-05 4.36644e-05 4.56273e-05 4.71498e-05 4.83141e-05 4.92013e-05 4.98874e-05 5.04418e-05 5.09259e-05 5.13891e-05 5.18533e-05 5.22646e-05
          5.23482e-05 5.11497e-05 4.53738e-05 1.72391e-06 8.51181e-07 6.17934e-07 5.51243e-07 5.41796e-07 5.64477e-07 6.31572e-07 7.86906e-07 1.12345e-06
          1.79572e-06 3.01291e-06 4.98966e-06 7.85997e-06 1.16004e-05 1.60195e-05 2.08166e-05 2.56655e-05 3.02822e-05 3.44612e-05 3.80838e-05 4.11079e-05
          4.35469e-05 4.54487e-05 4.68764e-05 4.78935e-05 4.85526e-05 4.88864e-05 4.88988e-05 4.85548e-05 4.77653e-05 4.63645e-05 4.4075e-05 4.04575e-05
          3.48528e-05 2.63978e-05
        </DataArray>
        <DataArray type="Float32" Name="relativePerm_nonwetting" NumberOfComponents="1" format="ascii">
          0.987548 0.990483 0.991573 0.991931 0.991984 0.991858 0.991503 0.990762 0.989422 0.987352 0.98459 0.981311
          0.977759 0.97418 0.970777 0.967687 0.964982 0.962686 0.960788 0.959254 0.95804 0.957102 0.956392 0.955871
          0.955506 0.955272 0.955154 0.955149 0.955271 0.955551 0.956056 0.956903 0.958297 0.960617 0.964602 0.987548
          0.990483 0.991573 0.991931 0.991984 0.991858 0.991503 0.990762 0.989422 0.987351 0.984588 0.981308 0.977755
          0.974175 0.970771 0.96768 0.964973 0.962674 0.960772 0.959232 0.95801 0.957057 0.956326 0.955772 0.955356
          0.955043 0.954803 0.954611 0.954445 0.954286 0.954128 0.953988 0.95396 0.954368 0.956419 0.987548 0.990483
          0.991573 0.991931 0.991983 0.991858 0.991503 0.990762 0.989421 0.98735 0.984587 0.981307 0.977753 0.974173
          0.970768 0.967675 0.964967 0.962667 0.960762 0.959218 0.957991 0.957029 0.956285 0.95571 0.95526 0.954893
          0.954568 0.954237 0.953842 0.9533 0.952486 0.95119 0.949055 0.945436 0.939104 0.987548 0.990483 0.991573
          0.991931 0.991984 0.991858 0.991503 0.990762 0.989422 0.987351 0.984588 0.981308 0.977755 0.974175 0.970771
          0.96768 0.964973 0.962674 0.960772 0.959232 0.95801 0.957057 0.956326 0.955772 0.955356 0.955043 0.954803
          0.954611 0.954445 0.954286 0.954128 0.953988 0.95396 0.954368 0.956419 0.987548 0.990483 0.991573 0.991931
          0.991984 0.991858 0.991503 0.990762 0.989422 0.987352 0.98459 0.981311 0.977759 0.97418 0.970777 0.967687
          0.964982 0.962686 0.960788 0.959254 0.95804 0.957102 0.956392 0.955871 0.955506 0.955272 0.955154 0.955149
          0.955271 0.955551 0.956056 0.956903 0.958297 0.960617 0.964602 0.987548 0.990483 0.991573 0.991931 0.991984
          0.991858 0.991503 0.990762 0.989422 0.987352 0.98459 0.981311 0.977759 0.97418 0.970777 0.967687 0.964982
          0.962686 0.960788 0.959254 0.95804 0.957102 0.956392 0.955871 0.955506 0.955272 0.955154 0.955149 0.955271
          0.955551 0.956056 0.956903 0.958297 0.960617 0.964602 0.987548 0.990483 0.991573 0.991931 0.991984 0.991858
          0.991503 0.990762 0.989422 0.987351 0.984588 0.981308 0.977755 0.974175 0.970771 0.96768 0.964973 0.962674
          0.960772 0.959232 0.95801 0.957057 0.956326 0.955772 0.955356 0.955043 0.954803 0.954611 0.954445 0.954286
          0.954128 0.953988 0.95396 0.954368 0.956419 0.987548 0.990483 0.991573 0.991931 0.991983 0.991858 0.991503
          0.990762 0.989421 0.98735 0.984587 0.981307 0.977753 0.974173 0.970768 0.967675 0.964967 0.962667 0.960762
          0.959218 0.957991 0.957029 0.956285 0.95571 0.95526 0.954893 0.954568 0.954237 0.953842 0.9533 0.952486
          0.95119 0.949055 0.945436 0.939104 0.987548 0.990483 0.991573 0.991931 0.991984 0.991858 0.991503 0.990762
          0.989422 0.987351 0.984588 0.981308 0.977755 0.974175 0.970771 0.96768 0.964973 0.962674 0.960772 0.959232
          0.95801 0.957057 0.956326 0.955772 0.955356 0.955043 0.954803 0.954611 0.954445 0.954286 0.954128 0.953988
          0.95396 0.954368 0.956419 0.987548 0.990483 0.991573 0.991931 0.991984 0.991858 0.991503 0.990762 0.989422
          0.987352 0.98459 0.981311 0.977759 0.97418 0.970777 0.967687 0.964982 0.962686 0.960788 0.959254 0.95804
          0.957102 0.956392 0.955871 0.955506 0.955272 0.955154 0.955149 0.955271 0.955551 0.956056 0.956903 0.958297
          0.960617 0.964602
        </DataArray>
        <DataArray type="Float32" Name="porosity" NumberOfComponents="1" format="ascii">
          0.4 0.4 0.4 0.4 0.4 0.4 0.4 0.4 0.4 0.4 0.4 0.4
          0.4 0.4 0.4 0.4 0.4 0.4 0.4 0.4 0.4 0.4 0.4 0.4
          0.4 0.4 0.4 0.4 0.4 0.4 0.4 0.4 0.4 0.4 0.4 0.4
          0.4 0.4 0.4 0.4 0.4 0.4 0.4 0.4 0.4 0.4 0.4 0.4
          0.4 0.4 0.4 0.4 0.4 0.4 0.4 0.4 0.4 0.4 0.4 0.4
          0.4 0.4 0.4 0.4 0.4 0.4 0.4 0.4 0.4 0.4 0.4 0.4
          0.4 0.4 0.4 0.4 0.4 0.4 0.4 0.4 0.4 0.4 0.4 0.4
          0.4 0.4 0.4 0.4 0.4 0.4 0.4 0.4 0.4 0.4 0.4 0.4
          0.4 0.4 0.4 0.4 0.4 0.4 0.4 0.4 0.4 0.4 0.4 0.4
          0.4 0.4 0.4 0.4 0.4 0.4 0.4 0.4 0.4 0.4 0.4 0.4
          0.4 0.4 0.4 0.4 0.4 0.4 0.4 0.4 0.4 0.4 0.4 0.4
          0.4 0.4 0.4 0.4 0.4 0.4 0.4 0.4 0.4 0.4 0.4 0.4
          0.4 0.4 0.4 0.4 0.4 0.4 0.4 0.4 0.4 0.4 0.4 0.4
          0.4 0.4 0.4 0.4 0.4 0.4 0.4 0.4 0.4 0.4 0.4 0.4
          0.4 0.4 0.4 0.4 0.4 0.4 0.4 0.4 0.4 0.4 0.4 0.4
          0.4 0.4 0.4 0.4 0.4 0.4 0.4 0.4 0.4 0.4 0.4 0.4
          0.4 0.4 0.4 0.4 0.4 0.4 0.4 0.4 0.4 0.4 0.4 0.4
          0.4 0.4 0.4 0.4 0.4 0.4 0.4 0.4 0.4 0.4 0.4 0.4
          0.4 0.4 0.4 0.4 0.4 0.4 0.4 0.4 0.4 0.4 0.4 0.4
          0.4 0.4 0.4 0.4 0.4 0.4 0.4 0.4 0.4 0.4 0.4 0.4
          0.4 0.4 0.4 0.4 0.4 0.4 0.4 0.4 0.4 0.4 0.4 0.4
          0.4 0.4 0.4 0.4 0.4 0.4 0.4 0.4 0.4 0.4 0.4 0.4
          0.4 0.4 0.4 0.4 0.4 0.4 0.4 0.4 0.4 0.4 0.4 0.4
          0.4 0.4 0.4 0.4 0.4 0.4 0.4 0.4 0.4 0.4 0.4 0.4
          0.4 0.4 0.4 0.4 0.4 0.4 0.4 0.4 0.4 0.4 0.4 0.4
          0.4 0.4 0.4 0.4 0.4 0.4 0.4 0.4 0.4 0.4 0.4 0.4
          0.4 0.4 0.4 0.4 0.4 0.4 0.4 0.4 0.4 0.4 0.4 0.4
          0.4 0.4 0.4 0.4 0.4 0.4 0.4 0.4 0.4 0.4 0.4 0.4
          0.4 0.4 0.4 0.4 0.4 0.4 0.4 0.4 0.4 0.4 0.4 0.4
          0.4 0.4
        </DataArray>
        <DataArray type="Float32" Name="temperature" NumberOfComponents="1" format="ascii">
          293.15 293.15 293.15 293.15 293.15 293.15 293.15 293.15 293.15 293.15 293.15 293.15
          293.15 293.15 293.15 293.15 293.15 293.15 293.15 293.15 293.15 293.15 293.15 293.15
          293.15 293.15 293.15 293.15 293.15 293.15 293.15 293.15 293.15 293.15 293.15 293.15
          293.15 293.15 293.15 293.15 293.15 293.15 293.15 293.15 293.15 293.15 293.15 293.15
          293.15 293.15 293.15 293.15 293.15 293.15 293.15 293.15 293.15 293.15 293.15 293.15
          293.15 293.15 293.15 293.15 293.15 293.15 293.15 293.15 293.15 293.15 293.15 293.15
          293.15 293.15 293.15 293.15 293.15 293.15 293.15 293.15 293.15 293.15 293.15 293.15
          293.15 293.15 293.15 293.15 293.15 293.15 293.15 293.15 293.15 293.15 293.15 293.15
          293.15 293.15 293.15 293.15 293.15 293.15 293.15 293.15 293.15 293.15 293.15 293.15