<?xml version="1.0"?>
<VTKFile type="UnstructuredGrid" version="0.1" byte_order="LittleEndian">
  <UnstructuredGrid>
    <Piece NumberOfCells="1400" NumberOfPoints="1491">
      <PointData Scalars="pressure_w">
        <DataArray type="Float32" Name="pressure_w" NumberOfComponents="1" format="ascii">
          100000 100000 99997.9 99997.9 99995.8 99995.8 99993.7 99993.7 99991.6 99991.6 99989.5 99989.5
          99987.3 99987.3 99985.2 99985.2 99983.1 99983.1 99981 99981 99978.9 99978.9 99976.8 99976.8
          99974.7 99974.7 99972.6 99972.6 99970.5 99970.5 99968.3 99968.3 99966.2 99966.2 99964.1 99964.1
          99962 99962 99959.9 99959.9 99957.8 99957.8 99955.7 99955.7 99953.5 99953.5 99951.4 99951.4
          99949.3 99949.3 99947.2 99947.2 99945.1 99945.1 99942.9 99942.9 99940.8 99940.8 99938.7 99938.7
          99936.6 99936.6 99934.4 99934.4 99932.3 99932.3 99930.1 99930.1 99928 99928 99925.8 99925.9
          99923.7 99923.7 99921.5 99921.5 99919.4 99919.4 99917.2 99917.2 99915 99915 99912.8 99912.8
          99910.6 99910.6 99908.3 99908.3 99906.1 99906.1 99903.8 99903.8 99901.5 99901.5 99899.2 99899.2
          99896.8 99896.8 99894.4 99894.4 99892 99892 99889.5 99889.5 99887 99887 99884.4 99884.4
          99881.7 99881.8 99879 99879 99876.2 99876.2 99873.4 99873.4 99870.5 99870.5 99867.6 99867.6
          99864.9 99864.9 99862.6 99862.7 99861.3 99862.3 99862.2 99866.1 99867.3 99878.3 99878.7 99902.3
          99896.5 99929.8 99916.8 99953 99936.4 99968 99962.7 99974.7 100000 100000 100000 99997.9
          99995.8 99993.7 99991.6 99989.5 99987.3 99985.2 99983.1 99981 99978.9 99976.8 99974.7 99972.6
          99970.5 99968.3 99966.2 99964.1 99962 99959.9 99957.8 99955.7 99953.5 99951.4 99949.3 99947.2
          99945.1 99942.9 99940.8 99938.7 99936.6 99934.4 99932.3 99930.2 99928 99925.9 99923.7 99921.5
          99919.4 99917.2 99915 99912.8 99910.6 99908.4 99906.1 99903.9 99901.6 99899.3 99896.9 99894.5
          99892.1 99889.6 99887.1 99884.6 99881.9 99879.2 99876.4 99873.5 99870.6 99867.6 99865.1 99864.1
          99868.4 99886.3 99920.9 99959.6 99991.7 100013 100022 100018 100000 100000 99997.9 99995.8
          99993.7 99991.6 99989.5 99987.3 99985.2 99983.1 99981 99978.9 99976.8 99974.7 99972.6 99970.5
          99968.3 99966.2 99964.1 99962 99959.9 99957.8 99955.7 99953.5 99951.4 99949.3 99947.2 99945.1
          99943 99940.8 99938.7 99936.6 99934.4 99932.3 99930.2 99928 99925.9 99923.7 99921.6 99919.4
          99917.2 99915 99912.9 99910.6 99908.4 99906.2 99903.9 99901.7 99899.4 99897 99894.7 99892.3
          99889.8 99887.3 99884.8 99882.2 99879.5 99876.7 99873.8 99870.8 99867.9 99866.1 99869.1 99887.2
          99928 99976.1 100017 100044 100057 100057 100042 100000 100000 99997.9 99995.8 99993.7
          99991.6 99989.5 99987.3 99985.2 99983.1 99981 99978.9 99976.8 99974.7 99972.6 99970.5 99968.4
          99966.2 99964.1 99962 99959.9 99957.8 99955.7 99953.6 99951.4 99949.3 99947.2 99945.1 99943
          99940.8 99938.7 99936.6 99934.5 99932.3 99930.2 99928.1 99925.9 99923.8 99921.6 99919.4 99917.3
          99915.1 99912.9 99910.7 99908.5 99906.3 99904 99901.8 99899.5 99897.2 99894.9 99892.5 99890.1
          99887.6 99885.1 99882.5 99879.8 99877.1 99874.2 99871.3 99868.7 99868.5 99878.6 99915.2 99968.8
          100019 100056 100078 100084 100074 100043 100001 100000 99997.9 99995.8 99993.7 99991.6
          99989.5 99987.3 99985.2 99983.1 99981 99978.9 99976.8 99974.7 99972.6 99970.5 99968.4 99966.2
          99964.1 99962 99959.9 99957.8 99955.7 99953.6 99951.4 99949.3 99947.2 99945.1 99943 99940.9
          99938.7 99936.6 99934.5 99932.4 99930.2 99928.1 99925.9 99923.8 99921.6 99919.5 99917.3 99915.2
          99913 99910.8 99908.6 99906.4 99904.2 99901.9 99899.7 99897.4 99895.1 99892.8 99890.4 99888
          99885.5 99883 99880.4 99877.7 99874.9 99872 99869.7 99870.7 99886.2 99930.8 99987.9 100038
          100073 100093 100097 100081 100043 100001 100000 99997.9 99995.8 99993.7 99991.6 99989.5
          99987.3 99985.2 99983.1 99981 99978.9 99976.8 99974.7 99972.6 99970.5 99968.4 99966.2 99964.1
          99962 99959.9 99957.8 99955.7 99953.6 99951.5 99949.3 99947.2 99945.1 99943 99940.9 99938.8
          99936.6 99934.5 99932.4 99930.2 99928.1 99926 99923.8 99921.7 99919.6 99917.4 99915.2 99913.1
          99910.9 99908.7 99906.5 99904.3 99902.1 99899.9 99897.6 99895.4 99893.1 99890.8 99888.4 99886
          99883.5 99881 99878.4 99875.8 99873 99870.6 99870.6 99880.3 99916.1 99969.2 100020 100057
          100079 100085 100074 100043 100001 100000 99997.9 99995.8 99993.7 99991.6 99989.5 99987.3
          99985.2 99983.1 99981 99978.9 99976.8 99974.7 99972.6 99970.5 99968.4 99966.2 99964.1 99962
          99959.9 99957.8 99955.7 99953.6 99951.5 99949.4 99947.2 99945.1 99943 99940.9 99938.8 99936.6
          99934.5 99932.4 99930.3 99928.2 99926 99923.9 99921.8 99919.6 99917.5 99915.3 99913.2 99911
          99908.9 99906.7 99904.5 99902.3 99900.1 99897.9 99895.7 99893.4 99891.2 99888.9 99886.5 99884.2
          99881.8 99879.4 99876.8 99874.3 99871.9 99870.5 99873.4 99890.4 99929.9 99977.6 100018 100046
          100058 100057 100042 100000 100000 99997.9 99995.8 99993.7 99991.6 99989.5 99987.3 99985.2
          99983.1 99981 99978.9 99976.8 99974.7 99972.6 99970.5 99968.4 99966.2 99964.1 99962 99959.9
          99957.8 99955.7 99953.6 99951.5 99949.4 99947.2 99945.1 99943 99940.9 99938.8 99936.7 99934.6
          99932.4 99930.3 99928.2 99926.1 99923.9 99921.8 99919.7 99917.6 99915.4 99913.3 99911.1 99909
          99906.9 99904.7 99902.5 99900.4 99898.2 99896 99893.8 99891.6 99889.4 99887.1 99884.9 99882.6
          99880.4 99878.1 99875.8 99873.5 99871.7 99871.3 99875.5 99891.9 99924.9 99962.9 99994.7 100015
          100024 100018 100000 100000 99997.9 99995.8 99993.7 99991.6 99989.5 99987.3 99985.2 99983.1
          99981 99978.9 99976.8 99974.7 99972.6 99970.5 99968.4 99966.2 99964.1 99962 99959.9 99957.8
          99955.7 99953.6 99951.5 99949.4 99947.3 99945.1 99943 99940.9 99938.8 99936.7 99934.6 99932.5
          99930.4 99928.2 99926.1 99924 99921.9 99919.8 99917.6 99915.5 99913.4 99911.3 99909.1 99907
          99904.9 99902.8 99900.6 99898.5 99896.3 99894.2 99892.1 99889.9 99887.8 99885.6 99883.5 99881.4
          99879.3 99877.3 99875.4 99873.7 99872.7 99873.1 99877.2 99888.2 99909.8 99935.8 99958 99972
          99977.6 100000 100000 99997.9 99995.8 99993.7 99991.6 99989.5 99987.3 99985.2 99983.1 99981
          99978.9 99976.8 99974.7 99972.6 99970.5 99968.4 99966.3 99964.1 99962 99959.9 99957.8 99955.7
          99953.6 99951.5 99949.4 99947.3 99945.2 99943.1 99940.9 99938.8 99936.7 99934.6 99932.5 99930.4
          99928.3 99926.2 99924.1 99922 99919.8 99917.7 99915.6 99913.5 99911.4 99909.3 99907.2 99905.1
          99903 99900.9 99898.8 99896.7 99894.6 99892.5 99890.5 99888.4 99886.4 99884.4 99882.4 99880.5
          99878.7 99877.1 99875.8 99874.9 99875 99876.6 99881 99889.7 99903.2 99920.8 99941.4 99967.4
          100000 100000 99997.9 99995.8 99993.7 99991.6 99989.5 99987.4 99985.2 99983.1 99981 99978.9
          99976.8 99974.7 99972.6 99970.5 99968.4 99966.3 99964.1 99962 99959.9 99957.8 99955.7 99953.6
          99951.5 99949.4 99947.3 99945.2 99943.1 99941 99938.9 99936.8 99934.6 99932.5 99930.4 99928.3
          99926.2 99924.1 99922 99919.9 99917.8 99915.7 99913.6 99911.5 99909.5 99907.4 99905.3 99903.2
          99901.1 99899.1 99897 99895 99893 99891 99889 99887 99885.1 99883.3 99881.6 99879.9
          99878.5 99877.4 99876.8 99876.9 99878.5 99882.2 99889.5 99901.5 99918.7 99940.7 99967.9 100000
          100000 99997.9 99995.8 99993.7 99991.6 99989.5 99987.4 99985.2 99983.1 99981 99978.9 99976.8
          99974.7 99972.6 99970.5 99968.4 99966.3 99964.2 99962 99959.9 99957.8 99955.7 99953.6 99951.5
          99949.4 99947.3 99945.2 99943.1 99941 99938.9 99936.8 99934.7 99932.6 99930.5 99928.4 99926.3
          99924.2 99922.1 99920 99917.9 99915.8 99913.7 99911.7 99909.6 99907.5 99905.5 99903.4 99901.4
          99899.4 99897.4 99895.4 99893.4 99891.4 99889.5 99887.7 99885.8 99884.1 99882.4 99880.9 99879.6
          99878.5 99877.9 99878.2 99880.1 99885.7 99897.4 99917.4 99941.6 99962.6 99976.9 100000 100000
          99997.9 99995.8 99993.7 99991.6 99989.5 99987.4 99985.2 99983.1 99981 99978.9 99976.8 99974.7
          99972.6 99970.5 99968.4 99966.3 99964.2 99962.1 99959.9 99957.8 99955.7 99953.6 99951.5 99949.4
          99947.3 99945.2 99943.1 99941 99938.9 99936.8 99934.7 99932.6 99930.5 99928.4 99926.3 99924.2
          99922.1 99920.1 99918 99915.9 99913.9 99911.8 99909.7 99907.7 99905.7 99903.6 99901.6 99899.6
          99897.7 99895.7 99893.8 99891.9 99890 99888.2 99886.5 99884.8 99883.2 99881.7 99880.3 99879.2
          99878.6 99879.4 99884.2 99898.5 99928 99962.3 99991.2 100009 100014 100000 100000 99997.9
          99995.8 99993.7 99991.6 99989.5 99987.4 99985.2 99983.1 99981 99978.9 99976.8 99974.7 99972.6
          99970.5 99968.4 99966.3 99964.2 99962.1 99960 99957.8 99955.7 99953.6 99951.5 99949.4 99947.3
          99945.2 99943.1 99941 99938.9 99936.8 99934.7 99932.6 99930.5 99928.5 99926.4 99924.3 99922.2
          99920.1 99918.1 99916 99913.9 99911.9 99909.9 99907.8 99905.8 99903.8 99901.8 99899.9 99897.9
          99896 99894.1 99892.3 99890.5 99888.7 99887 99885.3 99883.7 99882.2 99880.9 99879.7 99879.4
          99882.4 99895.3 99929.1 99972.8 100011 100036 100046 100039 100000 100000 99997.9 99995.8
          99993.7 99991.6 99989.5 99987.4 99985.2 99983.1 99981 99978.9 99976.8 99974.7 99972.6 99970.5
          99968.4 99966.3 99964.2 99962.1 99960 99957.9 99955.7 99953.6 99951.5 99949.4 99947.3 99945.2
          99943.1 99941 99938.9 99936.8 99934.8 99932.7 99930.6 99928.5 99926.4 99924.3 99922.3 99920.2
          99918.1 99916.1 99914 99912 99910 99908 99906 99904 99902 99900.1 99898.2 99896.3
          99894.4 99892.6 99890.8 99889.1 99887.4 99885.8 99884.2 99882.7 99881.3 99880.2 99880.4 99886.6
          99911.7 99957.9 100007 100044 100066 100069 100043 100000 100000 99997.9 99995.8 99993.7
          99991.6 99989.5 99987.4 99985.2 99983.1 99981 99978.9 99976.8 99974.7 99972.6 99970.5 99968.4
          99966.3 99964.2 99962.1 99960 99957.9 99955.8 99953.6 99951.5 99949.4 99947.3 99945.2 99943.1
          99941 99939 99936.9 99934.8 99932.7 99930.6 99928.5 99926.4 99924.4 99922.3 99920.2 99918.2
          99916.1 99914.1 99912.1 99910.1 99908.1 99906.1 99904.1 99902.2 99900.2 99898.4 99896.5 99894.7
          99892.9 99891.1 99889.4 99887.8 99886.2 99884.6 99883.1 99881.7 99880.6 99880.8 99886.9 99911.9
          99958 100007 100044 100066 100069 100043 100000 100000 99997.9 99995.8 99993.7 99991.6
          99989.5 99987.4 99985.2 99983.1 99981 99978.9 99976.8 99974.7 99972.6 99970.5 99968.4 99966.3
          99964.2 99962.1 99960 99957.9 99955.8 99953.6 99951.5 99949.4 99947.3 99945.2 99943.1 99941.1
          99939 99936.9 99934.8 99932.7 99930.6 99928.5 99926.5 99924.4 99922.3 99920.3 99918.2 99916.2
          99914.2 99912.1 99910.1 99908.2 99906.2 99904.2 99902.3 99900.4 99898.5 99896.7 99894.9 99893.1
          99891.4 99889.7 99888.1 99886.5 99885 99883.5 99882.1 99881 99880.6 99883.3 99895.9 99929.5
          99972.9 100011 100036 100045 100039 100000 100000 99997.9 99995.8 99993.7 99991.6 99989.5
          99987.4 99985.2 99983.1 99981 99978.9 99976.8 99974.7 99972.6 99970.5 99968.4 99966.3 99964.2
          99962.1 99960 99957.9 99955.8 99953.7 99951.6 99949.5 99947.4 99945.3 99943.2 99941.1 99939
          99936.9 99934.8 99932.7 99930.6 99928.6 99926.5 99924.4 99922.4 99920.3 99918.3 99916.2 99914.2
          99912.2 99910.2 99908.2 99906.2 99904.3 99902.4 99900.5 99898.6 99896.8 99895 99893.2 99891.5
          99889.9 99888.3 99886.7 99885.2 99883.8 99882.5 99881.4 99880.6 99881.2 99885.5 99899.2 99928.2
          99962.2 99990.9 100009 100014 100000 100000 99997.9 99995.8 99993.7 99991.6 99989.5 99987.4
          99985.2 99983.1 99981 99978.9 99976.8 99974.7 99972.6 99970.5 99968.4 99966.3 99964.2 99962.1
          99960 99957.9 99955.8 99953.7 99951.6 99949.5 99947.4 99945.3 99943.2 99941.1 99939 99936.9
          99934.8 99932.7 99930.6 99928.6 99926.5 99924.4 99922.4 99920.3 99918.3 99916.2 99914.2 99912.2
          99910.2 99908.2 99906.3 99904.4 99902.4 99900.6 99898.7 99896.9 99895.1 99893.3 99891.6 99890
          99888.4 99886.9 99885.4 99884.1 99882.8 99881.7 99881 99880.9 99882.3 99887.1 99898 99917.4
          99941.2 99962 99976.3 100000 100000 99997.9 99995.8 99993.7 99991.6 99989.5 99987.4 99985.2
          99983.1 99981 99978.9 99976.8 99974.7 99972.6 99970.5 99968.4 99966.3 99964.2 99962.1 99960
          99957.9 99955.8 99953.7 99951.6 99949.5 99947.4 99945.3 99943.2 99941.1 99939 99936.9 99934.8
          99932.7 99930.6 99928.6 99926.5 99924.4 99922.4 99920.3 99918.3 99916.3 99914.2 99912.2 99910.2
          99908.3 99906.3 99904.4 99902.5 99900.6 99898.7 99896.9 99895.1 99893.4 99891.7 99890 99888.4
          99886.9 99885.5 99884.1 99882.9 99881.9 99881.1 99881 99881.9 99884.9 99891.5 99903.2 99920.3
          99941.6 99967.6 100000
        </DataArray>
        <DataArray type="Float32" Name="pressure_n" NumberOfComponents="1" format="ascii">
          100958 100958 100956 100956 100954 100954 100951 100951 100949 100949 100947 100947
          100945 100945 100943 100943 100941 100941 100939 100939 100937 100937 100935 100935
          100932 100932 100930 100930 100928 100928 100926 100926 100924 100924 100922 100922
          100920 100920 100918 100918 100916 100916 100913 100913 100911 100911 100909 100909
          100907 100907 100905 100905 100903 100903 100901 100901 100899 100899 100896 100896
          100894 100894 100892 100892 100890 100890 100888 100888 100886 100886 100884 100884
          100881 100881 100879 100879 100877 100877 100875 100875 100873 100873 100870 100871
          100868 100868 100866 100866 100864 100864 100862 100862 100859 100859 100857 100857
          100855 100855 100852 100852 100850 100850 100847 100847 100845 100845 100842 100842
          100839 100840 100837 100837 100834 100834 100831 100831 100828 100828 100825 100825
          100822 100822 100820 100820 100818 100817 100817 100816 100818 100816 100822 100818
          100831 100825 100848 100840 100875 100866 100913 100907 100958 100958 100958 100956
          100954 100951 100949 100947 100945 100943 100941 100939 100937 100935 100932 100930
          100928 100926 100924 100922 100920 100918 100916 100913 100911 100909 100907 100905
          100903 100901 100899 100896 100894 100892 100890 100888 100886 100884 100881 100879
          100877 100875 100873 100871 100868 100866 100864 100862 100859 100857 100855 100852
          100850 100847 100845 100842 100840 100837 100834 100831 100828 100825 100822 100819
          100816 100813 100810 100809 100810 100817 100836 100883 100958 100958 100956 100954
          100951 100949 100947 100945 100943 100941 100939 100937 100935 100932 100930 100928
          100926 100924 100922 100920 100918 100916 100913 100911 100909 100907 100905 100903
          100901 100899 100896 100894 100892 100890 100888 100886 100884 100881 100879 100877
          100875 100873 100871 100868 100866 100864 100862 100859 100857 100855 100852 100850
          100848 100845 100843 100840 100837 100834 100831 100828 100825 100822 100818 100814
          100809 100804 100797 100789 100780 100773 100787 100958 100958 100956 100954 100951
          100949 100947 100945 100943 100941 100939 100937 100935 100932 100930 100928 100926
          100924 100922 100920 100918 100916 100913 100911 100909 100907 100905 100903 100901
          100899 100896 100894 100892 100890 100888 100886 100884 100881 100879 100877 100875
          100873 100871 100868 100866 100864 100862 100860 100857 100855 100853 100850 100848
          100845 100843 100840 100838 100835 100832 100829 100826 100822 100818 100813 100807
          100799 100787 100770 100743 100697 100609 100347 100958 100956 100954 100951 100949
          100947 100945 100943 100941 100939 100937 100935 100932 100930 100928 100926 100924
          100922 100920 100918 100916 100913 100911 100909 100907 100905 100903 100901 100899
          100896 100894 100892 100890 100888 100886 100884 100882 100879 100877 100875 100873
          100871 100869 100866 100864 100862 100860 100857 100855 100853 100850 100848 100846
          100843 100841 100838 100835 100833 100830 100826 100823 100818 100813 100807 100797
          100784 100763 100727 100662 100533 100309 100958 100956 100954 100951 100949 100947
          100945 100943 100941 100939 100937 100935 100932 100930 100928 100926 100924 100922
          100920 100918 100916 100913 100911 100909 100907 100905 100903 100901 100899 100896
          100894 100892 100890 100888 100886 100884 100882 100879 100877 100875 100873 100871
          100869 100866 100864 100862 100860 100858 100855 100853 100851 100848 100846 100844
          100841 100839 100836 100833 100831 100828 100824 100820 100815 100810 100802 100790
          100773 100745 100698 100610 100347 100958 100956 100954 100951 100949 100947 100945
          100943 100941 100939 100937 100935 100932 100930 100928 100926 100924 100922 100920
          100918 100916 100913 100911 100909 100907 100905 100903 100901 100899 100896 100894
          100892 100890 100888 100886 100884 100882 100879 100877 100875 100873 100871 100869
          100867 100864 100862 100860 100858 100856 100853 100851 100849 100847 100844 100842
          100840 100837 100835 100832 100829 100826 100823 100819 100815 100810 100803 100795
          100785 100776 100789 100958 100958 100956 100954 100951 100949 100947 100945 100943
          100941 100939 100937 100935 100932 100930 100928 100926 100924 100922 100920 100918
          100916 100913 100911 100909 100907 100905 100903 100901 100899 100897 100894 100892
          100890 100888 100886 100884 100882 100880 100877 100875 100873 100871 100869 100867
          100865 100862 100860 100858 100856 100854 100852 100849 100847 100845 100843 100840
          100838 100836 100833 100831 100829 100826 100824 100822 100820 100819 100820 100825
          100842 100886 100958 100958 100956 100954 100951 100949 100947 100945 100943 100941
          100939 100937 100935 100932 100930 100928 100926 100924 100922 100920 100918 100916
          100913 100911 100909 100907 100905 100903 100901 100899 100897 100894 100892 100890
          100888 100886 100884 100882 100880 100878 100875 100873 100871 100869 100867 100865
          100863 100860 100858 100856 100854 100852 100850 100848 100846 100843 100841 100839
          100837 100835 100833 100831 100830 100829 100828 100829 100832 100839 100853 100876
          100912 100958 100958 100956 100954 100951 100949 100947 100945 100943 100941 100939
          100937 100935 100932 100930 100928 100926 100924 100922 100920 100918 100916 100913
          100911 100909 100907 100905 100903 100901 100899 100897 100894 100892 100890 100888
          100886 100884 100882 100880 100878 100875 100873 100871 100869 100867 100865 100863
          100861 100859 100857 100854 100852 100850 100848 100846 100844 100842 100840 100838
          100836 100835 100833 100832 100832 100833 100836 100841 100851 100867 100890 100921
          100958 100958 100956 100954 100951 100949 100947 100945 100943 100941 100939 100937
          100935 100932 100930 100928 100926 100924 100922 100920 100918 100916 100913 100911
          100909 100907 100905 100903 100901 100899 100897 100894 100892 100890 100888 100886
          100884 100882 100880 100878 100876 100873 100871 100869 100867 100865 100863 100861
          100859 100857 100855 100853 100851 100849 100847 100845 100843 100841 100839 100838
          100836 100835 100834 100834 100836 100838 100844 100854 100869 100892 100923 100958
          100958 100956 100954 100951 100949 100947 100945 100943 100941 100939 100937 100935
          100932 100930 100928 100926 100924 100922 100920 100918 100916 100913 100911 100909
          100907 100905 100903 100901 100899 100897 100894 100892 100890 100888 100886 100884
          100882 100880 100878 100876 100874 100871 100869 100867 100865 100863 100861 100859
          100857 100855 100853 100851 100849 100847 100845 100844 100842 100840 100839 100837
          100836 100835 100835 100836 100838 100842 100849 100862 100883 100916 100958 100958
          100956 100954 100951 100949 100947 100945 100943 100941 100939 100937 100935 100932
          100930 100928 100926 100924 100922 100920 100918 100916 100913 100911 100909 100907
          100905 100903 100901 100899 100897 100895 100892 100890 100888 100886 100884 100882
          100880 100878 100876 100874 100872 100870 100867 100865 100863 100861 100859 100857
          100855 100853 100852 100850 100848 100846 100844 100842 100841 100839 100838 100837
          100836 100835 100835 100835 100835 100837 100842 100856 100894 100958 100958 100956
          100954 100951 100949 100947 100945 100943 100941 100939 100937 100935 100932 100930
          100928 100926 100924 100922 100920 100918 100916 100913 100911 100909 100907 100905
          100903 100901 100899 100897 100895 100892 100890 100888 100886 100884 100882 100880
          100878 100876 100874 100872 100870 100868 100866 100864 100862 100860 100858 100856
          100854 100852 100850 100848 100846 100845 100843 100841 100840 100839 100837 100836
          100834 100833 100831 100827 100822 100814 100803 100806 100958 100958 100956 100954
          100951 100949 100947 100945 100943 100941 100939 100937 100935 100932 100930 100928
          100926 100924 100922 100920 100918 100916 100913 100911 100909 100907 100905 100903
          100901 100899 100897 100895 100892 100890 100888 100886 100884 100882 100880 100878
          100876 100874 100872 100870 100868 100866 100864 100862 100860 100858 100856 100854
          100852 100850 100849 100847 100845 100844 100842 100840 100839 100837 100836 100834
          100832 100828 100822 100811 100791 100749 100651 100357 100958 100956 100954 100951
          100949 100947 100945 100943 100941 100939 100937 100935 100932 100930 100928 100926
          100924 100922 100920 100918 100916 100913 100911 100909 100907 100905 100903 100901
          100899 100897 100895 100892 100890 100888 100886 100884 100882 100880 100878 100876
          100874 100872 100870 100868 100866 100864 100862 100860 100858 100856 100854 100852
          100851 100849 100847 100846 100844 100842 100841 100839 100838 100836 100834 100832
          100828 100822 100811 100791 100749 100651 100357 100958 100956 100954 100951 100949
          100947 100945 100943 100941 100939 100937 100935 100932 100930 100928 100926 100924
          100922 100920 100918 100916 100913 100911 100909 100907 100905 100903 100901 100899
          100897 100895 100893 100890 100888 100886 100884 100882 100880 100878 100876 100874
          100872 100870 100868 100866 100864 100862 100860 100858 100856 100854 100853 100851
          100849 100847 100846 100844 100843 100841 100840 100838 100837 100835 100833 100831
          100827 100822 100814 100803 100806 100958 100958 100956 100954 100951 100949 100947
          100945 100943 100941 100939 100937 100935 100932 100930 100928 100926 100924 100922
          100920 100918 100916 100913 100911 100909 100907 100905 100903 100901 100899 100897
          100895 100893 100890 100888 100886 100884 100882 100880 100878 100876 100874 100872
          100870 100868 100866 100864 100862 100860 100858 100856 100855 100853 100851 100849
          100848 100846 100844 100843 100842 100840 100839 100838 100837 100836 100835 100835
          100837 100842 100856 100894 100958 100958 100956 100954 100951 100949 100947 100945
          100943 100941 100939 100937 100935 100932 100930 100928 100926 100924 100922 100920
          100918 100916 100913 100911 100909 100907 100905 100903 100901 100899 100897 100895
          100893 100890 100888 100886 100884 100882 100880 100878 100876 100874 100872 100870
          100868 100866 100864 100862 100860 100858 100856 100855 100853 100851 100849 100848
          100846 100845 100843 100842 100841 100839 100839 100838 100838 100839 100842 100848
          100860 100882 100915 100958 100958 100956 100954 100951 100949 100947 100945 100943
          100941 100939 100937 100935 100932 100930 100928 100926 100924 100922 100920 100918
          100916 100913 100911 100909 100907 100905 100903 100901 100899 100897 100895 100893
          100890 100888 100886 100884 100882 100880 100878 100876 100874 100872 100870 100868
          100866 100864 100862 100860 100858 100856 100855 100853 100851 100849 100848 100846
          100845 100843 100842 100841 100840 100839 100838 100839 100840 100844 100852 100866
          100889 100920 100958
        </DataArray>
        <DataArray type="Float32" Name="density_w" NumberOfComponents="1" format="ascii">
          1000 1000 1000 1000 1000 1000 1000 1000 1000 1000 1000 1000
          1000 1000 1000 1000 1000 1000 1000 1000 1000 1000 1000 1000
          1000 1000 1000 1000 1000 1000 1000 1000 1000 1000 1000 1000
          1000 1000 1000 1000 1000 1000 1000 1000 1000 1000 1000 1000
          1000 1000 1000 1000 1000 1000 1000 1000 1000 1000 1000 1000
          1000 1000 1000 1000 1000 1000 1000 1000 1000 1000 1000 1000
          1000 1000 1000 1000 1000 1000 1000 1000 1000 1000 1000 1000
          1000 1000 1000 1000 1000 1000 1000 1000 1000 1000 1000 1000
          1000 1000 1000 1000 1000 1000 1000 1000 1000 1000 1000 1000
          1000 1000 1000 1000 1000 1000 1000 1000 1000 1000 1000 1000
          1000 1000 1000 1000 1000 1000 1000 1000 1000 1000 1000 1000
          1000 1000 1000 1000 1000 1000 1000 1000 1000 1000 1000 1000
          1000 1000 1000 1000 1000 1000 1000 1000 1000 1000 1000 1000
          1000 1000 1000 1000 1000 1000 1000 1000 1000 1000 1000 1000
          1000 1000 1000 1000 1000 1000 1000 1000 1000 1000 1000 1000
          1000 1000 1000 1000 1000 1000 1000 1000 1000 1000 1000 1000
          1000 1000 1000 1000 1000 1000 1000 1000 1000 1000 1000 1000
          1000 1000 1000 1000 1000 1000 1000 1000 1000 1000 1000 1000
          1000 1000 1000 1000 1000 1000 1000 1000 1000 1000 1000 1000
          1000 1000 1000 1000 1000 1000 1000 1000 1000 1000 1000 1000
          1000 1000 1000 1000 1000 1000 1000 1000 1000 1000 1000 1000
          1000 1000 1000 1000 1000 1000 1000 1000 1000 1000 1000 1000
          1000 1000 1000 1000 1000 1000 1000 1000 1000 1000 1000 1000
          1000 1000 1000 1000 1000 1000 1000 1000 1000 1000 1000 1000
          1000 1000 1000 1000 1000 1000 1000 1000 1000 1000 1000 1000
          1000 1000 1000 1000 1000 1000 1000 1000 1000 1000 1000 1000
          1000 1000 1000 1000 1000 1000 1000 1000 1000 1000 1000 1000
          1000 1000 1000 1000 1000 1000 1000 1000 1000 1000 1000 1000
          1000 1000 1000 1000 1000 1000 1000 1000 1000 1000 1000 1000
          1000 1000 1000 1000 1000 1000 1000 1000 1000 1000 1000 1000
          1000 1000 1000 1000 1000 1000 1000 1000 1000 1000 1000 1000
          1000 1000 1000 1000 1000 1000 1000 1000 1000 1000 1000 1000
          1000 1000 1000 1000 1000 1000 1000 1000 1000 1000 1000 1000
          1000 1000 1000 1000 1000 1000 1000 1000 1000 1000 1000 1000
          1000 1000 1000 1000 1000 1000 1000 1000 1000 1000 1000 1000
          1000 1000 1000 1000 1000 1000 1000 1000 1000 1000 1000 1000
          1000 1000 1000 1000 1000 1000 1000 1000 1000 1000 1000 1000
          1000 1000 1000 1000 1000 1000 1000 1000 1000 1000 1000 1000
          1000 1000 1000 1000 1000 1000 1000 1000 1000 1000 1000 1000
          1000 1000 1000 1000 1000 1000 1000 1000 1000 1000 1000 1000
          1000 1000 1000 1000 1000 1000 1000 1000 1000 1000 1000 1000
          1000 1000 1000 1000 1000 1000 1000 1000 1000 1000 1000 1000
          1000 1000 1000 1000 1000 1000 1000 1000 1000 1000 1000 1000
          1000 1000 1000 1000 1000 1000 1000 1000 1000 1000 1000 1000
          1000 1000 1000 1000 1000 1000 1000 1000 1000 1000 1000 1000
          1000 1000 1000 1000 1000 1000 1000 1000 1000 1000 1000 1000
          1000 1000 1000 1000 1000 1000 1000 1000 1000 1000 1000 1000
          1000 1000 1000 1000 1000 1000 1000 1000 1000 1000 1000 1000
          1000 1000 1000 1000 1000 1000 1000 1000 1000 1000 1000 1000
          1000 1000 1000 1000 1000 1000 1000 1000 1000 1000 1000 1000
          1000 1000 1000 1000 1000 1000 1000 1000 1000 1000 1000 1000
          1000 1000 1000 1000 1000 1000 1000 1000 1000 1000 1000 1000
          1000 1000 1000 1000 1000 1000 1000 1000 1000 1000 1000 1000
          1000 1000 1000 1000 1000 1000 1000 1000 1000 1000 1000 1000
          1000 1000 1000 1000 1000 1000 1000 1000 1000 1000 1000 1000
          1000 1000 1000 1000 1000 1000 1000 1000 1000 1000 1000 1000
          1000 1000 1000 1000 1000 1000 1000 1000 1000 1000 1000 1000
          1000 1000 1000 1000 1000 1000 1000 1000 1000 1000 1000 1000
          1000 1000 1000 1000 1000 1000 1000 1000 1000 1000 1000 1000
          1000 1000 1000 1000 1000 1000 1000 1000 1000 1000 1000 1000
          1000 1000 1000 1000 1000 1000 1000 1000 1000 1000 1000 1000
          1000 1000 1000 1000 1000 1000 1000 1000 1000 1000 1000 1000
          1000 1000 1000 1000 1000 1000 1000 1000 1000 1000 1000 1000
          1000 1000 1000 1000 1000 1000 1000 1000 1000 1000 1000 1000
          1000 1000 1000 1000 1000 1000 1000 1000 1000 1000 1000 1000
          1000 1000 1000 1000 1000 1000 1000 1000 1000 1000 1000 1000
          1000 1000 1000 1000 1000 1000 1000 1000 1000 1000 1000 1000
          1000 1000 1000 1000 1000 1000 1000 1000 1000 1000 1000 1000
          1000 1000 1000 1000 1000 1000 1000 1000 1000 1000 1000 1000
          1000 1000 1000 1000 1000 1000 1000 1000 1000 1000 1000 1000