<?xml version="1.0"?>
<VTKFile type="UnstructuredGrid" version="0.1" byte_order="LittleEndian">
  <UnstructuredGrid>
    <Piece NumberOfCells="1736" NumberOfPoints="1928">
      <CellData Scalars="pressure_wetting">
        <DataArray type="Float32" Name="pressure_wetting" NumberOfComponents="1" format="ascii">
          99729.5 99698 99698 99677 99677 99645.5 99614.1 99614.1 99593.2 99593.2 99729.5 99698
          99698 99677 99677 99645.5 99614.1 99614.1 99593.2 99593.2 99562.3 99532.1 99532.1 99512.3
          99512.3 99484.7 99459.9 99459.9 99444.3 99444.3 99430.4 99430.4 99418.3 99418.3 99562.3 99532.1
          99532.1 99512.3 99512.3 99484.7 99459.9 99459.9 99444.3 99444.3 99430.4 99430.4 99418.3 99418.3
          99729.5 99698 99698 99677 99677 99729.5 99698 99698 99677 99677 99645.5 99614.1
          99614.1 99593.2 99593.2 99645.5 99614.1 99614.1 99593.2 99593.2 99729.5 99698 99698 99677
          99677 99645.5 99614.1 99614.1 99593.2 99593.2 99562.3 99532.1 99532.1 99512.3 99512.3 99484.7
          99562.3 99532.1 99532.1 99512.3 99512.3 99484.7 99459.9 99459.9 99444.3 99444.3 99430.4 99430.4
          99418.3 99418.3 99459.9 99459.9 99444.3 99444.3 99430.4 99430.4 99418.3 99418.3 99562.3 99532.1
          99532.1 99512.3 99512.3 99484.7 99459.9 99459.9 99444.3 99444.3 99430.4 99430.4 99418.3 99418.3
          99406.3 99393.2 99384.9 99379.8 99406.3 99393.2 99384.9 99379.8 99376.9 99375.1 99374.1 99373.5
          99376.9 99375.1 99374.1 99373.5 99406.3 99393.2 99406.3 99393.2 99384.9 99379.8 99384.9 99379.8
          99406.3 99393.2 99384.9 99379.8 99376.9 99375.1 99376.9 99375.1 99374.1 99373.5 99374.1 99373.5
          99376.9 99375.1 99374.1 99373.5 99729.5 99698 99698 99677 99677 99645.5 99614.1 99614.1
          99593.2 99593.2 99729.5 99698 99698 99677 99677 99645.5 99614.1 99614.1 99593.2 99593.2
          99562.3 99532.1 99532.1 99512.3 99512.3 99484.7 99459.9 99459.9 99444.3 99444.3 99430.4 99430.4
          99418.3 99418.3 99562.3 99532.1 99532.1 99512.3 99512.3 99484.7 99459.9 99459.9 99444.3 99444.3
          99430.4 99430.4 99418.3 99418.3 99729.5 99698 99698 99677 99677 99729.5 99698 99698
          99677 99677 99645.5 99614.1 99614.1 99593.2 99593.2 99645.5 99614.1 99614.1 99593.2 99593.2
          99729.5 99698 99698 99677 99677 99645.5 99614.1 99614.1 99593.2 99593.2 99562.3 99532.1
          99532.1 99512.3 99512.3 99484.7 99562.3 99532.1 99532.1 99512.3 99512.3 99484.7 99459.9 99459.9
          99444.3 99444.3 99430.4 99430.4 99418.3 99418.3 99459.9 99459.9 99444.3 99444.3 99430.4 99430.4
          99418.3 99418.3 99562.3 99532.1 99532.1 99512.3 99512.3 99484.7 99459.9 99459.9 99444.3 99444.3
          99430.4 99430.4 99418.3 99418.3 99406.3 99393.2 99384.9 99379.8 99406.3 99393.2 99384.9 99379.8
          99376.9 99375.1 99374.1 99373.5 99376.9 99375.1 99374.1 99373.5 99406.3 99393.2 99406.3 99393.2
          99384.9 99379.8 99384.9 99379.8 99406.3 99393.2 99384.9 99379.8 99376.9 99375.1 99376.9 99375.1
          99374.1 99373.5 99374.1 99373.5 99376.9 99375.1 99374.1 99373.5 99373.1 99372.9 99372.7 99372.6
          99372.5 99373.1 99372.9 99372.7 99372.6 99372.5 99372.5 99372.4 99372.4 99372.3 99372.5 99372.4
          99372.4 99372.3 99373.1 99372.9 99372.7 99373.1 99372.9 99372.7 99372.6 99372.5 99372.6 99372.5
          99373.1 99372.9 99372.7 99372.6 99372.5 99372.5 99372.4 99372.5 99372.4 99372.4 99372.3 99372.4
          99372.3 99372.5 99372.4 99372.4 99372.3 99372.3 99372.2 99372.2 99372.1 99372.1 99372.3 99372.2
          99372.2 99372.1 99372.1 99372 99372 99371.9 99371.9 99372 99372 99371.9 99371.9 99372.3
          99372.2 99372.3 99372.2 99372.2 99372.1 99372.1 99372.2 99372.1 99372.1 99372.3 99372.2 99372.2
          99372.1 99372.1 99372 99372 99372 99372 99371.9 99371.9 99371.9 99371.9 99372 99372
          99371.9 99371.9 99373.1 99372.9 99372.7 99372.6 99372.5 99373.1 99372.9 99372.7 99372.6 99372.5
          99372.5 99372.4 99372.4 99372.3 99372.5 99372.4 99372.4 99372.3 99373.1 99372.9 99372.7 99373.1
          99372.9 99372.7 99372.6 99372.5 99372.6 99372.5 99373.1 99372.9 99372.7 99372.6 99372.5 99372.5
          99372.4 99372.5 99372.4 99372.4 99372.3 99372.4 99372.3 99372.5 99372.4 99372.4 99372.3 99372.3
          99372.2 99372.2 99372.1 99372.1 99372.3 99372.2 99372.2 99372.1 99372.1 99372 99372 99371.9
          99371.9 99372 99372 99371.9 99371.9 99372.3 99372.2 99372.3 99372.2 99372.2 99372.1 99372.1
          99372.2 99372.1 99372.1 99372.3 99372.2 99372.2 99372.1 99372.1 99372 99372 99372 99372
          99371.9 99371.9 99371.9 99371.9 99372 99372 99371.9 99371.9 99729.5 99698 99698 99677
          99677 99645.5 99614.1 99614.1 99593.2 99593.2 99729.5 99698 99698 99677 99677 99645.5
          99614.1 99614.1 99593.2 99593.2 99562.3 99532.1 99532.1 99512.3 99512.3 99484.7 99459.9 99459.9
          99444.3 99444.3 99430.4 99430.4 99418.3 99418.3 99562.3 99532.1 99532.1 99512.3 99512.3 99484.7
          99459.9 99459.9 99444.3 99444.3 99430.4 99430.4 99418.3 99418.3 99729.5 99698 99698 99677
          99677 99729.5 99698 99698 99677 99677 99645.5 99614.1 99614.1 99593.2 99593.2 99645.5
          99614.1 99614.1 99593.2 99593.2 99729.5 99698 99698 99677 99677 99645.5 99614.1 99614.1
          99593.2 99593.2 99562.3 99532.1 99532.1 99512.3 99512.3 99484.7 99562.3 99532.1 99532.1 99512.3
          99512.3 99484.7 99459.9 99459.9 99444.3 99444.3 99430.4 99430.4 99418.3 99418.3 99459.9 99459.9
          99444.3 99444.3 99430.4 99430.4 99418.3 99418.3 99562.3 99532.1 99532.1 99512.3 99512.3 99484.7
          99459.9 99459.9 99444.3 99444.3 99430.4 99430.4 99418.3 99418.3 99406.3 99393.2 99384.9 99379.8
          99406.3 99393.2 99384.9 99379.8 99376.9 99375.1 99374.1 99373.5 99376.9 99375.1 99374.1 99373.5
          99406.3 99393.2 99406.3 99393.2 99384.9 99379.8 99384.9 99379.8 99406.3 99393.2 99384.9 99379.8
          99376.9 99375.1 99376.9 99375.1 99374.1 99373.5 99374.1 99373.5 99376.9 99375.1 99374.1 99373.5
          99729.5 99698 99698 99677 99677 99645.5 99614.1 99614.1 99593.2 99593.2 99729.5 99698
          99698 99677 99677 99645.5 99614.1 99614.1 99593.2 99593.2 99562.3 99532.1 99532.1 99512.3
          99512.3 99484.7 99459.9 99459.9 99444.3 99444.3 99430.4 99430.4 99418.3 99418.3 99562.3 99532.1
          99532.1 99512.3 99512.3 99484.7 99459.9 99459.9 99444.3 99444.3 99430.4 99430.4 99418.3 99418.3
          99729.5 99698 99698 99677 99677 99729.5 99698 99698 99677 99677 99645.5 99614.1
          99614.1 99593.2 99593.2 99645.5 99614.1 99614.1 99593.2 99593.2 99729.5 99698 99698 99677
          99677 99645.5 99614.1 99614.1 99593.2 99593.2 99562.3 99532.1 99532.1 99512.3 99512.3 99484.7
          99562.3 99532.1 99532.1 99512.3 99512.3 99484.7 99459.9 99459.9 99444.3 99444.3 99430.4 99430.4
          99418.3 99418.3 99459.9 99459.9 99444.3 99444.3 99430.4 99430.4 99418.3 99418.3 99562.3 99532.1
          99532.1 99512.3 99512.3 99484.7 99459.9 99459.9 99444.3 99444.3 99430.4 99430.4 99418.3 99418.3
          99406.3 99393.2 99384.9 99379.8 99406.3 99393.2 99384.9 99379.8 99376.9 99375.1 99374.1 99373.5
          99376.9 99375.1 99374.1 99373.5 99406.3 99393.2 99406.3 99393.2 99384.9 99379.8 99384.9 99379.8
          99406.3 99393.2 99384.9 99379.8 99376.9 99375.1 99376.9 99375.1 99374.1 99373.5 99374.1 99373.5
          99376.9 99375.1 99374.1 99373.5 99373.1 99372.9 99372.7 99372.6 99372.5 99373.1 99372.9 99372.7
          99372.6 99372.5 99372.5 99372.4 99372.4 99372.3 99372.5 99372.4 99372.4 99372.3 99373.1 99372.9
          99372.7 99373.1 99372.9 99372.7 99372.6 99372.5 99372.6 99372.5 99373.1 99372.9 99372.7 99372.6
          99372.5 99372.5 99372.4 99372.5 99372.4 99372.4 99372.3 99372.4 99372.3 99372.5 99372.4 99372.4
          99372.3 99372.3 99372.2 99372.2 99372.1 99372.1 99372.3 99372.2 99372.2 99372.1 99372.1 99372
          99372 99371.9 99371.9 99372 99372 99371.9 99371.9 99372.3 99372.2 99372.3 99372.2 99372.2
          99372.1 99372.1 99372.2 99372.1 99372.1 99372.3 99372.2 99372.2 99372.1 99372.1 99372 99372
          99372 99372 99371.9 99371.9 99371.9 99371.9 99372 99372 99371.9 99371.9 99373.1 99372.9
          99372.7 99372.6 99372.5 99373.1 99372.9 99372.7 99372.6 99372.5 99372.5 99372.4 99372.4 99372.3
          99372.5 99372.4 99372.4 99372.3 99373.1 99372.9 99372.7 99373.1 99372.9 99372.7 99372.6 99372.5
          99372.6 99372.5 99373.1 99372.9 99372.7 99372.6 99372.5 99372.5 99372.4 99372.5 99372.4 99372.4
          99372.3 99372.4 99372.3 99372.5 99372.4 99372.4 99372.3 99372.3 99372.2 99372.2 99372.1 99372.1
          99372.3 99372.2 99372.2 99372.1 99372.1 99372 99372 99371.9 99371.9 99372 99372 99371.9
          99371.9 99372.3 99372.2 99372.3 99372.2 99372.2 99372.1 99372.1 99372.2 99372.1 99372.1 99372.3
          99372.2 99372.2 99372.1 99372.1 99372 99372 99372 99372 99371.9 99371.9 99371.9 99371.9
          99372 99372 99371.9 99371.9 99371.8 99371.8 99371.7 99371.7 99371.8 99371.8 99371.7 99371.7
          99371.6 99371.6 99371.5 99371.5 99371.4 99371.6 99371.6 99371.5 99371.5 99371.4 99371.8 99371.8
          99371.8 99371.8 99371.7 99371.7 99371.8 99371.7 99371.8 99371.8 99371.8 99371.7 99371.6 99371.6
          99371.5 99371.6 99371.6 99371.6 99371.5 99371.4 99371.5 99371.5 99371.7 99371.6 99371.6 99371.5
          99371.5 99371.3 99371.3 99371.2 99371.1 99371.4 99371.3 99371.2 99371.2 99371 99370.9 99370.8
          99370.7 99371.1 99371 99370.9 99370.8 99371.4 99371.3 99371.4 99371.4 99371.3 99371.2 99371.4
          99371.3 99371.5 99371.4 99371.4 99371.4 99371.2 99371.1 99371.3 99371.3 99371.1 99371 99371.3
          99371.3 99371.4 99371.4 99371.4 99371.4 99371.8 99371.8 99371.8 99371.7 99371.8 99371.8 99371.8
          99371.7 99371.7 99371.6 99371.6 99371.5 99371.5 99371.6 99371.6 99371.6 99371.5 99371.5 99371.8
          99371.8 99371.8 99371.8 99371.7 99371.7 99371.7 99371.7 99371.8 99371.8 99371.7 99371.7 99371.6
          99371.6 99371.5 99371.6 99371.6 99371.5 99371.5 99371.4 99371.5 99371.4 99371.6 99371.6 99371.5
          99371.5 99371.4 99371.5 99371.4 99371.4 99371.4 99371.4 99371.4 99371.4 99371.3 99371.4 99371.4
          99371.4 99371.4 99371.3 99371.3 99371.3 99371.3 99371.4 99371.3 99371.4 99371.3 99371.3 99371.2
          99371.2 99371.2 99371.3 99371.3 99371.2 99371.1 99371.2 99371.1 99371.1 99371 99371.1 99371
          99370.9 99370.8 99371 99370.9 99370.8 99370.7 99370.5 99370.3 99370.1 99369.8 99369.5 99370.7
          99370.6 99370.4 99370.2 99370 99369.1 99368.5 99367.8 99366.9 99369.7 99369.3 99368.9 99368.3
          99371 99370.9 99370.9 99371.3 99371.3 99371.4 99370.8 99370.8 99371.4 99371.6 99371.4 99371.5
          99371.6 99371.8 99372.1 99370.7 99370.7 99371.7 99372 99370.6 99370.5 99372.3 99372.7 99372.4
          99372.8 99373.4 99374.1 99365.8 99364.3 99362.3 99359.7 99356.3 99367.6 99366.6 99365.3 99363.6
          99361.2 99351.8 99345.7 99337.5 99326.9 99358 99353.3 99346.4 99335.7 99370.4 99370.3 99373.3
          99374 99370 99369.7 99369.1 99374.9 99376 99377.2 99375.1 99376.4 99378 99380.2 99383.1
          99368 99366.2 99378.6 99379.8 99363.1 99369.6 99366.8 99357.4 99354.2 99364.2 99356.9 99347.6
          99378.5 99386.4 99381.2 99375.7 99377.7 99386.9 99392.1 99399.3 99409.6 99371.4 99371.5 99371.6
          99371.8 99372.1 99371.3 99371.3 99371.4 99371.4 99371.6 99372.4 99372.8 99373.4 99374.1 99371.7
          99372 99372.3 99372.7 99371 99370.9 99370.9 99370.7 99370.6 99370.4 99370.8 99370.8 99370.2
          99370 99370.5 99370.3 99370.1 99369.8 99369.5 99370.7 99370.7 99369.7 99369.3 99370.6 99370.5
          99368.9 99368.3 99369.1 99368.5 99367.8 99366.9 99375.1 99376.4 99378 99380.2 99383.1 99373.3
          99374 99374.9 99376 99377.2 99386.9 99392.1 99399.3 99409.6 99378.6 99379.8 99386.4 99378.5
          99375.7 99381.2 99377.7 99370.4 99370.3 99367.6 99366.6 99370 99369.7 99369.1 99365.3 99363.6
          99361.2 99365.8 99364.3 99362.3 99359.7 99356.3 99368 99366.2 99358 99353.3 99369.6 99363.1
          99357.4 99366.8 99364.2 99354.2 99347.6 99356.9 99346.4 99335.7 99351.8 99345.7 99337.5 99326.9
          99371.8 99371.8 99371.7 99371.7 99371.8 99371.8 99371.7 99371.7 99371.6 99371.6 99371.5 99371.5
          99371.4 99371.6 99371.6 99371.5 99371.5 99371.4 99371.8 99371.8 99371.8 99371.8 99371.7 99371.7
          99371.8 99371.7 99371.8 99371.8 99371.8 99371.7 99371.6 99371.6 99371.5 99371.6 99371.6 99371.6
          99371.5 99371.4 99371.5 99371.5 99371.7 99371.6 99371.6 99371.5 99371.5 99371.3 99371.3 99371.2
          99371.1 99371.4 99371.3 99371.2 99371.2 99371 99370.9 99370.8 99370.7 99371.1 99371 99370.9
          99370.8 99371.4 99371.3 99371.4 99371.4 99371.3 99371.2 99371.4 99371.3 99371.5 99371.4 99371.4
          99371.4 99371.2 99371.1 99371.3 99371.3 99371.1 99371 99371.3 99371.3 99371.4 99371.4 99371.4
          99371.4 99371.8 99371.8 99371.8 99371.7 99371.8 99371.8 99371.8 99371.7 99371.7 99371.6 99371.6
          99371.5 99371.5 99371.6 99371.6 99371.6 99371.5 99371.5 99371.8 99371.8 99371.8 99371.8 99371.7
          99371.7 99371.7 99371.7 99371.8 99371.8 99371.7 99371.7 99371.6 99371.6 99371.5 99371.6 99371.6
          99371.5 99371.5 99371.4 99371.5 99371.4 99371.6 99371.6 99371.5 99371.5 99371.4 99371.5 99371.4
          99371.4 99371.4 99371.4 99371.4 99371.4 99371.3 99371.4 99371.4 99371.4 99371.4 99371.3 99371.3
          99371.3 99371.3 99371.4 99371.3 99371.4 99371.3 99371.3 99371.2 99371.2 99371.2 99371.3 99371.3
          99371.2 99371.1 99371.2 99371.1 99371.1 99371 99371.1 99371 99370.9 99370.8 99371 99370.9
          99370.8 99370.7 99370.5 99370.3 99370.1 99369.8 99369.5 99370.7 99370.6 99370.4 99370.2 99370
          99369.1 99368.5 99367.8 99366.9 99369.7 99369.3 99368.9 99368.3 99371 99370.9 99370.9 99371.3
          99371.3 99371.4 99370.8 99370.8 99371.4 99371.6 99371.4 99371.5 99371.6 99371.8 99372.1 99370.7
          99370.7 99371.7 99372 99370.6 99370.5 99372.3 99372.7 99372.4 99372.8 99373.4 99374.1 99365.8
          99364.3 99362.3 99359.7 99356.3 99367.6 99366.6 99365.3 99363.6 99361.2 99351.8 99345.7 99337.5
          99326.9 99358 99353.3 99346.4 99335.7 99370.4 99370.3 99373.3 99374 99370 99369.7 99369.1
          99374.9 99376 99377.2 99375.1 99376.4 99378 99380.2 99383.1 99368 99366.2 99378.6 99379.8
          99363.1 99369.6 99366.8 99357.4 99354.2 99364.2 99356.9 99347.6 99378.5 99386.4 99381.2 99375.7
          99377.7 99386.9 99392.1 99399.3 99409.6 99371.4 99371.5 99371.6 99371.8 99372.1 99371.3 99371.3
          99371.4 99371.4 99371.6 99372.4 99372.8 99373.4 99374.1 99371.7 99372 99372.3 99372.7 99371
          99370.9 99370.9 99370.7 99370.6 99370.4 99370.8 99370.8 99370.2 99370 99370.5 99370.3 99370.1
          99369.8 99369.5 99370.7 99370.7 99369.7 99369.3 99370.6 99370.5 99368.9 99368.3 99369.1 99368.5
          99367.8 99366.9 99375.1 99376.4 99378 99380.2 99383.1 99373.3 99374 99374.9 99376 99377.2
          99386.9 99392.1 99399.3 99409.6 99378.6 99379.8 99386.4 99378.5 99375.7 99381.2 99377.7 99370.4
          99370.3 99367.6 99366.6 99370 99369.7 99369.1 99365.3 99363.6 99361.2 99365.8 99364.3 99362.3
          99359.7 99356.3 99368 99366.2 99358 99353.3 99369.6 99363.1 99357.4 99366.8 99364.2 99354.2
          99347.6 99356.9 99346.4 99335.7 99351.8 99345.7 99337.5 99326.9
        </DataArray>
        <DataArray type="Float32" Name="pressure_nonwetting" NumberOfComponents="1" format="ascii">
          100003 100003 100003 100003 100003 100003 100003 100003 100003 100003 100003 100003
          100003 100003 100003 100003 100003 100003 100003 100003 100003 100003 100003 100003
          100003 100003 100003 100003 100003 100003 100003 100003 100003 100003 100003 100003
          100003 100003 100003 100003 100003 100003 100003 100003 100003 100003 100003 100003
          100003 100003 100003 100003 100003 100003 100003 100003 100003 100003 100003 100003
          100003 100003 100003 100003 100003 100003 100003 100003 100003 100003 100003 100003
          100003 100003 100003 100003 100003 100003 100003 100003 100003 100003 100003 100003
          100003 100003 100003 100003 100003 100003 100003 100003 100003 100003 100003 100003
          100003 100003 100003 100003 100003 100003 100003 100003 100003 100003 100003 100003
          100003 100003 100003 100003 100003 100003 100003 100003 100003 100003 100003 100003
          100003 100003 100003 100003 100003 100003 100003 100003 100003 100003 100003 100003
          100003 100003 100003 100003 100003 100003 100003 100003 100003 100003 100003 100003
          100003 100003 100003 100003 100003 100003 100003 100003 100003 100003 100003 100003
          100003 100003 100003 100003 100003 100003 100003 100003 100003 100003 100003 100003
          100003 100003 100003 100003 100003 100003 100003 100003 100003 100003 100003 100003
          100003 100003 100003 100003 100003 100003 100003 100003 100003 100003 100003 100003
          100003 100003 100003 100003 100003 100003 100003 100003 100003 100003 100003 100003
          100003 100003 100003 100003 100003 100003 100003 100003 100003 100003 100003 100003
          100003 100003 100003 100003 100003 100003 100003 100003 100003 100003 100003 100003
          100003 100003 100003 100003 100003 100003 100003 100003 100003 100003 100003 100003
          100003 100003 100003 100003 100003 100003 100003 100003 100003 100003 100003 100003
          100003 100003 100003 100003 100003 100003 100003 100003 100003 100003 100003 100003
          100003 100003 100003 100003 100003 100003 100003 100003 100003 100003 100003 100003
          100003 100003 100003 100003 100003 100003 100003 100003 100003 100003 100003 100003
          100003 100003 100003 100003 100003 100003 100003 100003 100003 100003 100003 100003
          100003 100003 100003 100003 100003 100003 100003 100003 100003 100003 100003 100003
          100003 100003 100003 100003 100003 100003 100003 100003 100003 100003 100002 100002
          100002 100003 100003 100002 100002 100002 100002 100002 100002 100002 100002 100002
          100002 100002 100003 100003 100002 100003 100003 100002 100002 100002 100002 100002
          100003 100003 100002 100002 100002 100002 100002 100002 100002 100002 100002 100002
          100002 100002 100002 100002 100002 100002 100002 100002 100002 100002 100002 100002
          100002 100002 100002 100002 100002 100002 100002 100002 100002 100002 100002 100002
          100002 100002 100002 100002 100002 100002 100002 100002 100002 100002 100002 100002
          100002 100002 100002 100002 100002 100002 100002 100002 100002 100002 100002 100002
          100002 100002 100003 100003 100002 100002 100002 100003 100003 100002 100002 100002
          100002 100002 100002 100002 100002 100002 100002 100002 100003 100003 100002 100003
          100003 100002 100002 100002 100002 100002 100003 100003 100002 100002 100002 100002
          100002 100002 100002 100002 100002 100002 100002 100002 100002 100002 100002 100002
          100002 100002 100002 100002 100002 100002 100002 100002 100002 100002 100002 100002
          100002 100002 100002 100002 100002 100002 100002 100002 100002 100002 100002 100002
          100002 100002 100002 100002 100002 100002 100002 100002 100002 100002 100002 100002
          100002 100002 100002 100002 100002 100002 100002 100002 100003 100003 100003 100003
          100003 100003 100003 100003 100003 100003 100003 100003 100003 100003 100003 100003
          100003 100003 100003 100003 100003 100003 100003 100003 100003 100003 100003 100003
          100003 100003 100003 100003 100003 100003 100003 100003 100003 100003 100003 100003
          100003 100003 100003 100003 100003 100003 100003 100003 100003 100003 100003 100003
          100003 100003 100003 100003 100003 100003 100003 100003 100003 100003 100003 100003
          100003 100003 100003 100003 100003 100003 100003 100003 100003 100003 100003 100003
          100003 100003 100003 100003 100003 100003 100003 100003 100003 100003 100003 100003
          100003 100003 100003 100003 100003 100003 100003 100003 100003 100003 100003 100003
          100003 100003 100003 100003 100003 100003 100003 100003 100003 100003 100003 100003
          100003 100003 100003 100003 100003 100003 100003 100003 100003 100003 100003 100003
          100003 100003 100003 100003 100003 100003 100003 100003 100003 100003 100003 100003
          100003 100003 100003 100003 100003 100003 100003 100003 100003 100003 100003 100003
          100003 100003 100003 100003 100003 100003 100003 100003 100003 100003 100003 100003
          100003 100003 100003 100003 100003 100003 100003 100003 100003 100003 100003 100003
          100003 100003 100003 100003 100003 100003 100003 100003 100003 100003 100003 100003
          100003 100003 100003 100003 100003 100003 100003 100003 100003 100003 100003 100003
          100003 100003 100003 100003 100003 100003 100003 100003 100003 100003 100003 100003
          100003 100003 100003 100003 100003 100003 100003 100003 100003 100003 100003 100003
          100003 100003 100003 100003 100003 100003 100003 100003 100003 100003 100003 100003
          100003 100003 100003 100003 100003 100003 100003 100003 100003 100003 100003 100003
          100003 100003 100003 100003 100003 100003 100003 100003 100003 100003 100003 100003
          100003 100003 100003 100003 100003 100003 100003 100003 100003 100003 100003 100003
          100003 100003 100003 100003 100003 100003 100003 100003 100003 100003 100003 100003
          100003 100003 100003 100003 100003 100003 100003 100003 100003 100003 100003 100003
          100003 100003 100003 100003 100003 100003 100003 100003 100003 100003 100003 100003
          100003 100003 100003 100003 100003 100003 100003 100003 100003 100003 100003 100003
          100003 100003 100003 100003 100003 100003 100002 100002 100002 100003 100003 100002
          100002 100002 100002 100002 100002 100002 100002 100002 100002 100002 100003 100003
          100002 100003 100003 100002 100002 100002 100002 100002 100003 100003 100002 100002
          100002 100002 100002 100002 100002 100002 100002 100002 100002 100002 100002 100002
          100002 100002 100002 100002 100002 100002 100002 100002 100002 100002 100002 100002
          100002 100002 100002 100002 100002 100002 100002 100002 100002 100002 100002 100002
          100002 100002 100002 100002 100002 100002 100002 100002 100002 100002 100002 100002
          100002 100002 100002 100002 100002 100002 100002 100002 100002 100002 100003 100003
          100002 100002 100002 100003 100003 100002 100002 100002 100002 100002 100002 100002
          100002 100002 100002 100002 100003 100003 100002 100003 100003 100002 100002 100002
          100002 100002 100003 100003 100002 100002 100002 100002 100002 100002 100002 100002
          100002 100002 100002 100002 100002 100002 100002 100002 100002 100002 100002 100002
          100002 100002 100002 100002 100002 100002 100002 100002 100002 100002 100002 100002
          100002 100002 100002 100002 100002 100002 100002 100002 100002 100002 100002 100002
          100002 100002 100002 100002 100002 100002 100002 100002 100002 100002 100002 100002
          100002 100002 100002 100002 100002 100002 100002 100002 100002 100002 100002 100002
          100002 100001 100001 100001 100001 100002 100001 100001 100001 100001 100002 100002
          100002 100002 100002 100002 100002 100002 100002 100002 100002 100002 100002 100001
          100001 100002 100001 100001 100001 100001 100001 100001 100002 100001 100001 100001
          100001 100001 100001 100001 100001 100001 100001 100001 100001 100001 100001 100001
          100001 100001 100001 100001 100001 100001 100001 100001 100001 100001 100001 100001
          100001 100001 100001 100001 100001 100001 100001 100001 100001 100001 100001 100001
          100001 100001 100001 100001 100001 100002 100002 100002 100002 100002 100002 100002
          100002 100002 100001 100001 100001 100001 100002 100001 100001 100001 100001 100002
          100002 100002 100002 100002 100002 100002 100002 100002 100002 100002 100002 100002
          100001 100001 100002 100001 100001 100001 100001 100001 100001 100002 100001 100001
          100001 100001 100001 100001 100001 100001 100001 100001 100001 100001 100001 100001
          100001 100001 100001 100001 100001 100001 100001 100001 100001 100001 100001 100001
          100001 100001 100001 100001 100001 100001 100001 100001 100001 100001 100001 100001
          100001 100001 100001 100001 100001 100001 100001 100001 100001 100001 100001 100001
          100001 100001 100001 100001 100001 100001 100000 100000 100001 100001 100000 100000
          100001 100001 100001 100001 100001 100001 100001 100001 100001 100001 100001 100001
          100001 100001 100001 100001 100001 100001 100001 100000 100000 100000 100000 100001
          100001 100000 100000 100000 100000 100000 100000 100000 100000 100000 100000 100000
          100000 100000 100000 100000 100000 100000 100000 100000 100000 100000 100000 100000
          100000 100000 100000 100000 100000 100000 100000 100000 100000 100000 100000 100000
          100000 100000 100000 100000 100000 100000 100000 100000 100000 100000 100000 100000
          100000 100000 100000 100000 100000 100000 100000 100000 100000 100001 100001 100001
          100001 100001 100001 100001 100001 100001 100001 100001 100001 100000 100000 100001
          100001 100000 100000 100001 100001 100001 100001 100001 100001 100001 100001 100001
          100001 100001 100001 100001 100001 100001 100001 100001 100001 100001 100000 100000
          100000 100000 100001 100001 100000 100000 100000 100000 100000 100000 100000 100000
          100000 100000 100000 100000 100000 100000 100000 100000 100000 100000 100000 100000
          100000 100000 100000 100000 100000 100000 100000 100000 100000 100000 100000 100000
          100000 100000 100000 100000 100000 100000 100000 100000 100000 100000 100000 100000
          100000 100000 100000 100000 100000 100000 100000 100000 100000 100000 100000 100000
          100002 100002 100002 100002 100002 100002 100002 100002 100002 100001 100001 100001
          100001 100002 100001 100001 100001 100001 100002 100002 100002 100002 100002 100002
          100002 100002 100002 100002 100002 100002 100002 100001 100001 100002 100001 100001
          100001 100001 100001 100001 100002 100001 100001 100001 100001 100001 100001 100001
          100001 100001 100001 100001 100001 100001 100001 100001 100001 100001 100001 100001
          100001 100001 100001 100001 100001 100001 100001 100001 100001 100001 100001 100001
          100001 100001 100001 100001 100001 100001 100001 100001 100001 100001 100001 100001
          100001 100002 100002 100002 100002 100002 100002 100002 100002 100002 100001 100001
          100001 100001 100002 100001 100001 100001 100001 100002 100002 100002 100002 100002
          100002 100002 100002 100002 100002 100002 100002 100002 100001 100001 100002 100001
          100001 100001 100001 100001 100001 100002 100001 100001 100001 100001 100001 100001
          100001 100001 100001 100001 100001 100001 100001 100001 100001 100001 100001 100001
          100001 100001 100001 100001 100001 100001 100001 100001 100001 100001 100001 100001
          100001 100001 100001 100001 100001 100001 100001 100001 100001 100001 100001 100001
          100001 100001 100001 100001 100001 100001 100001 100001 100001 100001 100001 100001
          100001 100001 100000 100000 100001 100001 100000 100000 100001 100001 100001 100001
          100001 100001 100001 100001 100001 100001 100001 100001 100001 100001 100001 100001
          100001 100001 100001 100000 100000 100000 100000 100001 100001 100000 100000 100000
          100000 100000 100000 100000 100000 100000 100000 100000 100000 100000 100000 100000
          100000 100000 100000 100000 100000 100000 100000 100000 100000 100000 100000 100000
          100000 100000 100000 100000 100000 100000 100000 100000 100000 100000 100000 100000
          100000 100000 100000 100000 100000 100000 100000 100000 100000 100000 100000 100000
          100000 100000 100000 100000 100000 100001 100001 100001 100001 100001 100001 100001
          100001 100001 100001 100001 100001 100000 100000 100001 100001 100000 100000 100001
          100001 100001 100001 100001 100001 100001 100001 100001 100001 100001 100001 100001
          100001 100001 100001 100001 100001 100001 100000 100000 100000 100000 100001 100001
          100000 100000 100000 100000 100000 100000 100000 100000 100000 100000 100000 100000
          100000 100000 100000 100000 100000 100000 100000 100000 100000 100000 100000 100000
          100000 100000 100000 100000 100000 100000 100000 100000 100000 100000 100000 100000
          100000 100000 100000 100000 100000 100000 100000 100000 100000 100000 100000 100000
          100000 100000 100000 100000 100000 100000 100000 100000
        </DataArray>
        <DataArray type="Float32" Name="density_wetting" NumberOfComponents="1" format="ascii">
          1000 1000 1000 1000 1000 1000 1000 1000 1000 1000 1000 1000
          1000 1000 1000 1000 1000 1000 1000 1000 1000 1000 1000 1000
          1000 1000 1000 1000 1000 1000 1000 1000 1000 1000 1000 1000
          1000 1000 1000 1000 1000 1000 1000 1000 1000 1000 1000 1000
          1000 1000 1000 1000 1000 1000 1000 1000 1000 1000 1000 1000
          1000 1000 1000 1000 1000 1000 1000 1000 1000 1000 1000 1000
          1000 1000 1000 1000 1000 1000 1000 1000 1000 1000 1000 1000
          1000 1000 1000 1000 1000 1000 1000 1000 1000 1000 1000 1000
          1000 1000 1000 1000 1000 1000 1000 1000 1000 1000 1000 1000
          1000 1000 1000 1000 1000 1000 1000 1000 1000 1000 1000 1000
          1000 1000 1000 1000 1000 1000 1000 1000 1000 1000 1000 1000
          1000 1000 1000 1000 1000 1000 1000 1000 1000 1000 1000 1000