<?xml version="1.0"?>
<VTKFile type="UnstructuredGrid" version="0.1" byte_order="LittleEndian">
  <UnstructuredGrid>
    <Piece NumberOfCells="1883" NumberOfPoints="980">
      <PointData Scalars="pressure_wetting">
        <DataArray type="Float32" Name="pressure_wetting" NumberOfComponents="1" format="ascii">
          91831.5 91806.7 91806.7 91809.1 91729.8 91765.4 91765.3 91661.4 91789.1 91785.2 91787.1 91783.3
          91789.5 91783.7 91780.1 91791 91785.4 91793.1 91779.4 91788.4 91781.9 91776.1 91795.8 91794.8
          91791.4 91786.6 91784.1 91776.4 91775.6 91790.2 91798.4 91789.1 91779.1 91781.5 91794.2 91797.3
          91799.2 91791.6 91772.7 91780.5 91774.2 91779.1 91770.7 91780 91804 91774.4 91776.4 91775.7
          91803 91783.7 91771.9 91794.2 91796.7 91801.3 91769.5 91770.6 91800.9 91768.5 91776.7 91770.3
          91787.8 91790.3 91773.1 91766.8 91774.9 91799.5 91763.7 91808.5 91768.2 91768.1 91765.3 91796.7
          91791.5 91779.2 91766.9 91774.3 91779.2 91760.5 91769 91764.8 91768.4 91771.6 91803.1 91806.7
          91759 91764.5 91770.1 91761.5 91759.5 91813.3 91761 91801.3 91787.2 91815.2 91799.2 91805
          91794 91813.9 91762.9 91771.8 91760.6 91765.9 91761.3 91767 91806.1 91769.4 91764.7 91810.1
          91786.3 91759.1 91803.8 91746.7 91761.8 91757.5 91749.1 91756.8 91766.5 91801.7 91751.8 91791.4
          91758.2 91759 91797.5 91827.2 91761 91757.1 91763.7 91769.1 91783.1 91826.3 91817 91807.3
          91755.8 91762.9 91772 91762.2 91796.4 91805.8 91755 91770.5 91748.1 91804.8 91754.5 91765
          91829.7 91801.7 91753.1 91766.3 91758 91804.2 91763 91789.3 91779.1 91815.9 91754.4 91752.1
          91750.8 91797.1 91739.8 91766.8 91757.5 91747.9 91755.1 91761.4 91756.4 91752.5 91838.9 91806.6
          91751.2 91845.6 91762.5 91749.1 91779.5 91727.6 91806.6 91752.4 91756.1 91767.6 91784.5 91748
          91747.4 91806.5 91803.3 91766.5 91750.4 91787.6 91749.2 91771.8 91794.6 91752.5 91755.2 91745.1
          91800.8 91736.8 91858 91723.3 91766.5 91756 91747.2 91830.9 91806.6 91744.4 91748.7 91803.7
          91767 91728.1 91826 91758.4 91871.7 91749.9 91859.7 91758.3 91743.8 91766.3 91747.4 91760.1
          91773.4 91741.7 91745.6 91761.4 91853.8 91780.3 91837.3 91739.3 91806.7 91808.9 91865.3 91750.1
          91753.6 91745.2 91722.1 91704.7 91791.5 91748.8 91800.6 91737.6 91824.7 91743 91746.2 91747.3
          91888.7 91893.5 91738.2 91766.1 91818.5 91749.4 91739 91750.6 91857.8 91745.5 91695.8 91763.4
          91754 91753.3 91766 91806.8 91890.5 91819.5 91849.2 91734.4 91742.9 91732.2 91751.5 91733.7
          91738.7 91767.8 91774.9 91896.5 91800 91779.7 91908.5 91820.9 91786.4 91740.8 91739.9 91827.3
          91811.5 91693 91920.2 91739.3 91721.1 91743.6 91731.3 91743.7 91879.3 91733.1 91724.4 91897.5
          91743.5 91752.4 91806.9 91743.7 91922.4 91720.8 91738.2 91745 91765.8 91742.1 91765.8 91793.2
          91837.2 91844.1 91721.1 91750.9 91887 91743.8 91734.6 91690.8 91740.3 91765.7 91754.9 91722.2
          91796.6 91933.5 91724.2 91723.2 91832.3 91743.8 91855.5 91779.2 91738.5 91773.3 91733.2 91761.1
          91789.1 91682.8 91743.5 91840.8 91734.3 91713.2 91668 91807 91950.9 91726 91743.7 91725.5
          91814 91836 91727.9 91743.9 91688.5 91692.9 91744.1 91743.9 91780.9 91945.6 91736.6 91728.8
          91765.6 91729.7 91719.9 91892.3 91968 91765.4 91862.4 91800 91774.9 91661 91856.7 91651.3
          91744.9 91712.1 91928.8 91717.4 91744 91700.6 91713.1 91762.8 91743.7 91709.7 91866.4 91745.7
          91743.4 91734.6 91731.5 91695.1 91785.9 91807 91817.3 91759.9 91894.4 91680.3 91850.5 91695.3
          91705.4 91704.8 91743.9 91944.4 91797.3 91724.1 91859.2 91881.8 91784 91710.5 91719.1 91706.1
          91717 91744 91747 91816.5 91745 91838 91839.2 91644.4 91732.7 91635.7 91727.9 91775.9
          91801.1 91696.1 91655.6 91918.4 91719.4 91763.6 91748.1 91765.1 91622.5 91863.9 92005.4 91676.4
          91743.3 91746.5 91593.9 91988.3 91682 91704.3 91807.1 91867.9 91687 91744.5 91688.4 91645.5
          91821.7 91684.6 91744 91591.9 91794.5 91910.3 91757.5 91898.9 91635.4 91731 91720.6 92020.1
          91731.9 91666.8 91682.7 91865.4 91936.7 91748.5 91750.4 91688.5 91602.2 91877.6 91724.9 91683.9
          92005.2 91750.8 91696.5 92044.9 91663.5 91680 91843.9 91851.4 91624.6 91776.3 91819 91746
          91684.9 91613.6 91787.1 91601.1 91653.7 91743.3 91559.3 91773.6 91729.5 91744.1 91981.5 91706.4
          91807.1 91694 91719.7 91764.8 91535.7 91681.2 91568.2 91523 91897.1 91658.2 91649.5 91754
          91797.9 91748.5 91828.4 91730.1 91803.6 91744.6 91920.4 91685.6 91754.5 91909.1 91493.8 91963.3
          91615.2 91693.3 91624.1 91989.2 91635.2 91567 91727.9 91756.2 91711.4 91883.4 91651.2 91898.9
          91744.1 91640.5 91657.4 91758.5 91857.5 91751.7 91648.9 91713.7 91563.7 91665.6 91570.2 91517.6
          91789.8 91836.9 92107 92108.8 91743.2 91774.2 91763.5 91976.5 91807.2 91747.1 91678.2 91850.2
          91945.3 91821.4 91459.9 91755.6 92079.8 91446 91714.7 91790.7 91567.6 91820.9 91635.1 91601
          91764.6 91726.4 91612.9 91936.3 92067.1 91955.4 91694 91766.1 91530.5 91760.9 91611.3 91750.5
          91533.7 91622.6 91910.5 91598.6 91663.4 91648.6 91668.7 91544.9 91946.2 91766.3 91431 91766.6
          91785.8 91873.4 91468.3 91623.9 91745.4 91890.8 91590.1 91807.2 91796.5 91743.2 91699.3 91782.8
          91815.9 91662.8 91724.8 91429 92102.1 91559.3 92013 91748.4 91839.5 91563 91738.8 91760
          91617.4 91976 91823.7 91370.6 91783.1 91754.9 91569.5 92210.3 91546.8 92041.9 91634.9 91539.6
          91764.4 91777.2 91656.8 91700.5 91455.8 91474.6 91550.5 92087.3 92015.4 91507.7 91930.9 91425
          91775.9 92182.6 91767.6 91382.8 91712.7 92245.3 91751.6 91304.7 91860.9 91808.2 91723.1 91746.5
          91778.2 91834.7 91551.2 91327.1 91917.5 91962.1 91556.6 91743.2 91807.2 91799.3 91653.7 91522.5
          91678.9 91823.1 91684.6 91630.4 91793.1 91624.3 91838.1 91760.3 92080.5 91315.8 91865.6 91503.9
          91368.4 91456.6 91758.5 92286.2 91979.5 91464.1 91826 92121 91325.1 91408.4 91790.2 91532.4
          91766.4 91453.2 91820.2 91258.5 92079 91721.4 91404.9 91622.3 91605.2 91747.7 91297.3 91470.4
          91712.6 91491.6 92215.6 91791.1 91913.1 91676.2 91807.2 91743.1 91774 92096.7 91358.1 91655.1
          91752.8 91463.2 92064.1 91640.8 91483.8 91873.4 91904.1 91842.4 91519.9 91536.5 91985.6 91715
          91674.1 91695.5 91625.8 91424.4 91763.7 91572.9 91751.6 91260 91196.8 91281.8 92347.3 91758.6
          91845 91778.2 92476.4 92141.6 91301.7 91789.9 91719.7 92371.4 91517.3 92418.4 91581.2 92668.3
          91181.1 91145.3 91685.9 92313.1 91599.8 91513.3 91748.5 91771.6 91977 91942.4 91717 91377.1
          91807.2 91808.6 91118.5 91743.1 91232.1 91770.5 91100.6 91882.6 92159.1 91755 91389.1 91476.1
          91907 91876.6 91642.2 91332.6 91763.9 92376.3 92171.1 92232.8 91792.1 91833.9 91056.4 91177
          91396.8 91718 92254.7 91440.4 98340.2 91577.4 91609.6 92704.6 93412 91855.5 92057.9 91782
          92450.9 91507.4 91749.4 91697.6 91660 91027.9 90694.7 90669.4 91834.7 91861.6 91807.2 91743.1
          93117.3 91419.3 92037.1 92068.1 91903.6 90988.1 90649.9 93676.2 92640.3 92500.8 92807 93054.6
          91420.9 91726.3 91743 91919.1 91763.2 91960.8 91472.2 91363.3 91765.1 91342.7 90911.5 90629.9
          91716.5 91774.9 91776.2 91793.8 91615.9 91513.1 91267.8 91801.1 91830 94931.3 91884 92746.4
          99702.8 91728.1 91703.7 91721.1 91337.5 91257.7 92142.9 91034.7 91529.6 91754.7 91743.1 91752.7
          91785.8 90969.9 90869.5 90637.1 93135.6 92029.6 91222.8 91839.1 91807.2 90923.5 90666.2 91865.4
          92256.9 91886.2 91743.1 91085.9 90721.7 91217.8 91670.2 91691.5 93548.1 93387.5 91653.3 91615.7
          91762.7 91759.8 91825.9 94978.9 91715.2 91768.3 91768.6 92437.4 91419.9 91853.4 91873.3 91764.9
          91769.4 91222.4 90910.8 91562.8 91561.7 91503.5 91179.9 91039.1 92690.5 95425.3 94800.6 91907.4
          91240.5 91786.1 91788.2 91807.2 91299.7 91162.9 99956.2 100000 91829.1 93004.6 91956.3 91807.2
          91830.8 91880.5 91714.1 91713.4 90860.2 91405.5 91492.1 96007.9 94783.4 91394.1 91252.8 91966.4
          91980.5 91876.5 91201.9 90701.8 91079.5 92877.1 93041.6 92770 93428.4 93348.4 91858.7 91851.2
          91039.1 92114.8 91905.2 91143.9 90885.1 90621.5 90971.4 90665.9 90654.1 92343.2 91049.2 91003.1
          92020.2 91878.8 91903 91878.5 92224.7 93121.2 91909.7 91946.5 90946.7 90628.3 92625 92541.5
          91967.4 92004.8 91935.8 91927.8 92441.4 92371.5 90992.9 91203.1 90846.8 90610.9 91086.3 90919.5
          91891.1 91901.4 90849 90620.9 92068.3 92145.6 92094 92032.2 90879.6 90631.8 92305.7 92254.5
          92189.4 92190.7 90658.9 90909.5 91915.8 91914.4 90840.9 90630.5
        </DataArray>
        <DataArray type="Float32" Name="pressure_nonwetting" NumberOfComponents="1" format="ascii">
          101318 101294 101293 101296 101217 101252 101252 101148 101276 101272 101274 101270
          101276 101271 101267 101278 101272 101280 101266 101275 101269 101263 101283 101282
          101278 101273 101271 101263 101262 101277 101285 101276 101266 101268 101281 101284
          101286 101278 101260 101267 101261 101266 101258 101267 101291 101261 101263 101263
          101290 101270 101259 101281 101284 101288 101256 101257 101288 101255 101264 101257
          101275 101277 101260 101254 101262 101286 101251 101295 101255 101255 101252 101284
          101278 101266 101254 101261 101266 101247 101256 101252 101255 101258 101290 101294
          101246 101251 101257 101248 101246 101300 101248 101288 101274 101302 101286 101292
          101281 101301 101250 101259 101247 101253 101248 101254 101293 101256 101252 101297
          101273 101246 101291 101234 101249 101244 101236 101244 101253 101289 101239 101278
          101245 101246 101284 101314 101248 101244 101250 101256 101270 101313 101304 101294
          101243 101250 101259 101249 101283 101293 101242 101257 101235 101292 101241 101252
          101317 101289 101240 101253 101245 101291 101250 101276 101266 101303 101241 101239
          101238 101284 101227 101254 101244 101235 101242 101248 101243 101239 101326 101293
          101238 101332 101249 101236 101266 101214 101293 101239 101243 101254 101271 101235
          101234 101293 101290 101253 101237 101274 101236 101259 101281 101239 101242 101232
          101288 101224 101345 101210 101253 101243 101234 101318 101293 101231 101236 101291
          101254 101215 101313 101245 101359 101237 101347 101245 101231 101253 101234 101247
          101260 101229 101232 101248 101341 101267 101324 101226 101294 101296 101352 101237
          101240 101232 101209 101192 101278 101236 101287 101224 101312 101230 101233 101234
          101375 101380 101225 101253 101305 101236 101226 101237 101345 101232 101183 101250
          101241 101240 101253 101294 101377 101306 101336 101221 101230 101219 101238 101220
          101226 101255 101262 101383 101287 101267 101395 101308 101273 101228 101227 101314
          101298 101180 101407 101226 101208 101230 101218 101230 101366 101220 101211 101384
          101230 101239 101294 101231 101409 101208 101225 101232 101253 101229 101253 101280
          101324 101331 101208 101238 101374 101231 101221 101178 101227 101253 101242 101209
          101283 101420 101211 101210 101319 101231 101342 101266 101225 101260 101220 101248
          101276 101170 101230 101328 101221 101200 101155 101294 101438 101213 101231 101212
          101301 101323 101215 101231 101175 101180 101231 101231 101268 101432 101223 101216
          101252 101217 101207 101379 101455 101252 101349 101287 101262 101148 101344 101138
          101232 101199 101416 101204 101231 101187 101200 101250 101231 101197 101353 101233
          101230 101221 101218 101182 101273 101294 101304 101247 101381 101167 101337 101182
          101192 101192 101231 101431 101284 101211 101346 101369 101271 101197 101206 101193
          101204 101231 101234 101303 101232 101325 101326 101131 101220 101123 101215 101263
          101288 101183 101142 101405 101206 101250 101235 101252 101109 101351 101492 101163
          101230 101233 101081 101475 101169 101191 101294 101355 101174 101231 101175 101132
          101309 101171 101231 101079 101281 101397 101244 101386 101122 101218 101207 101507
          101219 101154 101170 101352 101424 101235 101237 101175 101089 101364 101212 101171
          101492 101238 101183 101532 101150 101167 101331 101338 101111 101263 101306 101233
          101172 101100 101274 101088 101141 101230 101046 101260 101216 101231 101468 101193
          101294 101181 101207 101252 101023 101168 101055 101010 101384 101145 101136 101241
          101285 101235 101315 101217 101290 101231 101407 101172 101241 101396 100981 101450
          101102 101180 101111 101476 101122 101054 101215 101243 101198 101370 101138 101386
          101231 101127 101144 101245 101344 101239 101136 101201 101051 101152 101057 101004
          101277 101324 101594 101596 101230 101261 101250 101463 101294 101234 101165 101337
          101432 101308 100947 101242 101567 100933 101202 101278 101054 101308 101122 101088
          101251 101213 101100 101423 101554 101442 101181 101253 101017 101248 101098 101237
          101020 101109 101397 101085 101150 101135 101156 101032 101433 101253 100918 101253
          101273 101360 100955 101111 101232 101378 101077 101294 101283 101230 101186 101270
          101303 101150 101212 100916 101589 101046 101500 101235 101326 101050 101226 101247
          101104 101463 101311 100857 101270 101242 101056 101697 101034 101529 101122 101026
          101251 101264 101144 101187 100943 100961 101037 101574 101502 100995 101418 100912
          101263 101669 101254 100870 101200 101732 101238 100792 101348 101295 101210 101233
          101265 101322 101038 100814 101404 101449 101043 101230 101294 101286 101141 101009
          101166 101310 101171 101117 101280 101111 101325 101247 101567 100803 101352 100991
          100855 100943 101245 101773 101466 100951 101313 101608 100812 100895 101277 101019
          101253 100940 101307 100745 101566 101208 100892 101109 101092 101235 100784 100957
          101199 100978 101702 101278 101400 101163 101294 101230 101261 101584 100845 101142
          101240 100950 101551 101128 100971 101360 101391 101329 101007 101023 101472 101202
          101161 101182 101113 100911 101251 101060 101238 100747 100684 100769 101834 101245
          101332 101265 101963 101315 100789 101277 101206 101858 101004 101899 101068 102155
          100668 100632 101173 101791 101087 101000 101235 101258 101464 101429 101204 100864
          101294 101295 100605 101230 100719 101257 100587 101369 101646 101242 100876 100963
          101394 101363 101129 100819 101251 101863 101658 101720 101279 101321 100543 100664
          100884 101205 101742 100927 101316 101064 101096 102191 102590 101342 101545 101269
          101938 100994 101236 101184 101147 100515 100182 100156 101322 101348 101294 101230
          102604 100906 101524 101555 101390 100475 100137 102652 102127 101988 102294 102541
          100908 101213 101230 101406 101250 101448 100959 100850 101252 100830 100398 100117
          101203 101262 101263 101281 101103 101000 100755 101288 101317 103311 101371 102233
          101294 101215 101191 101208 100824 100745 101630 100522 101016 101241 101230 101240
          101273 100457 100356 100124 102622 101516 100710 101326 101294 100410 100153 101352
          101744 101373 101230 100573 100209 100705 101157 101178 103035 102874 101140 101102
          101250 101247 101313 103319 101202 101255 101255 101924 100907 101340 101360 101252
          101256 100709 100398 101050 101049 100990 100667 100526 102177 103566 103425 101394
          100727 101273 101275 101294 100787 100650 101235 101000 101316 102491 101443 101294
          101318 101367 101201 101200 100347 100892 100979 103404 103301 100881 100740 101453
          101467 101363 100689 100189 100566 102364 102528 102257 102915 102835 101346 101338
          100526 101602 101392 100631 100372 100108 100458 100153 100141 101830 100536 100490
          101507 101366 101390 101365 101712 102608 101396 101433 100433 100115 102112 102028
          101454 101492 101423 101415 101928 101858 100480 100690 100334 100098 100573 100406
          101378 101388 100336 100108 101555 101632 101581 101519 100366 100119 101793 101741
          101676 101678 100146 100396 101403 101401 100328 100117
        </DataArray>
        <DataArray type="Float32" Name="density_wetting" NumberOfComponents="1" format="ascii">
          1000 1000 1000 1000 1000 1000 1000 1000 1000 1000 1000 1000
          1000 1000 1000 1000 1000 1000 1000 1000 1000 1000 1000 1000
          1000 1000 1000 1000 1000 1000 1000 1000 1000 1000 1000 1000
          1000 1000 1000 1000 1000 1000 1000 1000 1000 1000 1000 1000
          1000 1000 1000 1000 1000 1000 1000 1000 1000 1000 1000 1000
          1000 1000 1000 1000 1000 1000 1000 1000 1000 1000 1000 1000
          1000 1000 1000 1000 1000 1000 1000 1000 1000 1000 1000 1000
          1000 1000 1000 1000 1000 1000 1000 1000 1000 1000 1000 1000
          1000 1000 1000 1000 1000 1000 1000 1000 1000 1000 1000 1000
          1000 1000 1000 1000 1000 1000 1000 1000 1000 1000 1000 1000
          1000 1000 1000 1000 1000 1000 1000 1000 1000 1000 1000 1000
          1000 1000 1000 1000 1000 1000 1000 1000 1000 1000 1000 1000
          1000 1000 1000 1000 1000 1000 1000 1000 1000 1000 1000 1000
          1000 1000 1000 1000 1000 1000 1000 1000 1000 1000 1000 1000
          1000 1000 1000 1000 1000 1000 1000 1000 1000 1000 1000 1000
          1000 1000 1000 1000 1000 1000 1000 1000 1000 1000 1000 1000
          1000 1000 1000 1000 1000 1000 1000 1000 1000 1000 1000 1000
          1000 1000 1000 1000 1000 1000 1000 1000 1000 1000 1000 1000
          1000 1000 1000 1000 1000 1000 1000 1000 1000 1000 1000 1000
          1000 1000 1000 1000 1000 1000 1000 1000 1000 1000 1000 1000
          1000 1000 1000 1000 1000 1000 1000 1000 1000 1000 1000 1000
          1000 1000 1000 1000 1000 1000 1000 1000 1000 1000 1000 1000
          1000 1000 1000 1000 1000 1000 1000 1000 1000 1000 1000 1000
          1000 1000 1000 1000 1000 1000 1000 1000 1000 1000 1000 1000
          1000 1000 1000 1000 1000 1000 1000 1000 1000 1000 1000 1000
          1000 1000 1000 1000 1000 1000 1000 1000 1000 1000 1000 1000
          1000 1000 1000 1000 1000 1000 1000 1000 1000 1000 1000 1000
          1000 1000 1000 1000 1000 1000 1000 1000 1000 1000 1000 1000
          1000 1000 1000 1000 1000 1000 1000 1000 1000 1000 1000 1000
          1000 1000 1000 1000 1000 1000 1000 1000 1000 1000 1000 1000
          1000 1000 1000 1000 1000 1000 1000 1000 1000 1000 1000 1000
          1000 1000 1000 1000 1000 1000 1000 1000 1000 1000 1000 1000
          1000 1000 1000 1000 1000 1000 1000 1000 1000 1000 1000 1000
          1000 1000 1000 1000 1000 1000 1000 1000 1000 1000 1000 1000
          1000 1000 1000 1000 1000 1000 1000 1000 1000 1000 1000 1000
          1000 1000 1000 1000 1000 1000 1000 1000 1000 1000 1000 1000
          1000 1000 1000 1000 1000 1000 1000 1000 1000 1000 1000 1000
          1000 1000 1000 1000 1000 1000 1000 1000 1000 1000 1000 1000
          1000 1000 1000 1000 1000 1000 1000 1000 1000 1000 1000 1000
          1000 1000 1000 1000 1000 1000 1000 1000 1000 1000 1000 1000
          1000 1000 1000 1000 1000 1000 1000 1000 1000 1000 1000 1000
          1000 1000 1000 1000 1000 1000 1000 1000 1000 1000 1000 1000
          1000 1000 1000 1000 1000 1000 1000 1000 1000 1000 1000 1000
          1000 1000 1000 1000 1000 1000 1000 1000 1000 1000 1000 1000
          1000 1000 1000 1000 1000 1000 1000 1000 1000 1000 1000 1000
          1000 1000 1000 1000 1000 1000 1000 1000 1000 1000 1000 1000
          1000 1000 1000 1000 1000 1000 1000 1000 1000 1000 1000 1000
          1000 1000 1000 1000 1000 1000 1000 1000 1000 1000 1000 1000
          1000 1000 1000 1000 1000 1000 1000 1000 1000 1000 1000 1000
          1000 1000 1000 1000 1000 1000 1000 1000 1000 1000 1000 1000
          1000 1000 1000 1000 1000 1000 1000 1000 1000 1000 1000 1000
          1000 1000 1000 1000 1000 1000 1000 1000 1000 1000 1000 1000
          1000 1000 1000 1000 1000 1000 1000 1000 1000 1000 1000 1000
          1000 1000 1000 1000 1000 1000 1000 1000 1000 1000 1000 1000
          1000 1000 1000 1000 1000 1000 1000 1000 1000 1000 1000 1000
          1000 1000 1000 1000 1000 1000 1000 1000 1000 1000 1000 1000
          1000 1000 1000 1000 1000 1000 1000 1000 1000 1000 1000 1000
          1000 1000 1000 1000 1000 1000 1000 1000 1000 1000 1000 1000
          1000 1000 1000 1000 1000 1000 1000 1000 1000 1000 1000 1000
          1000 1000 1000 1000 1000 1000 1000 1000 1000 1000 1000 1000
          1000 1000 1000 1000 1000 1000 1000 1000 1000 1000 1000 1000
          1000 1000 1000 1000 1000 1000 1000 1000 1000 1000 1000 1000
          1000 1000 1000 1000 1000 1000 1000 1000 1000 1000 1000 1000
          1000 1000 1000 1000 1000 1000 1000 1000 1000 1000 1000 1000
          1000 1000 1000 1000 1000 1000 1000 1000 1000 1000 1000 1000
          1000 1000 1000 1000 1000 1000 1000 1000 1000 1000 1000 1000
          1000 1000 1000 1000 1000 1000 1000 1000 1000 1000 1000 1000
          1000 1000 1000 1000 1000 1000 1000 1000 1000 1000 1000 1000
          1000 1000 1000 1000 1000 1000 1000 1000 1000 1000 1000 1000
          1000 1000 1000 1000 1000 1000 1000 1000 1000 1000 1000 1000
          1000 1000 1000 1000 1000 1000 1000 1000 1000 1000 1000 1000
          1000 1000 1000 1000 1000 1000 1000 1000 1000 1000 1000 1000
          1000 1000 1000 1000 1000 1000 1000 1000 1000 1000 1000 1000
          1000 1000 1000 1000 1000 1000 1000 1000 1000 1000 1000 1000
          1000 1000 1000 1000 1000 1000 1000 1000 1000 1000 1000 1000
          1000 1000 1000 1000 1000 1000 1000 1000 1000 1000 1000 1000
          1000 1000 1000 1000 1000 1000 1000 1000 1000 1000 1000 1000
          1000 1000 1000 1000 1000 1000 1000 1000 1000 1000 1000 1000
          1000 1000 1000 1000 1000 1000 1000 1000 1000 1000 1000 1000
          1000 1000 1000 1000 1000 1000 1000 1000 1000 1000 1000 1000
          1000 1000 1000 1000 1000 1000 1000 1000 1000 1000 1000 1000
          1000 1000 1000 1000 1000 1000 1000 1000
        </DataArray>
        <DataArray type="Float32" Name="density_nonwetting" NumberOfComponents="1" format="ascii">
          1460 1460 1460 1460 1460 1460 1460 1460 1460 1460 1460 1460
          1460 1460 1460 1460 1460 1460 1460 1460 1460 1460 1460 1460
          1460 1460 1460 1460 1460 1460 1460 1460 1460 1460 1460 1460
          1460 1460 1460 1460 1460 1460 1460 1460 1460 1460 1460 1460
          1460 1460 1460 1460 1460 1460 1460 1460 1460 1460 1460 1460
          1460 1460 1460 1460 1460 1460 1460 1460 1460 1460 1460 1460
          1460 1460 1460 1460 1460 1460 1460 1460 1460 1460 1460 1460
          1460 1460 1460 1460 1460 1460 1460 1460 1460 1460 1460 1460
          1460 1460 1460 1460 1460 1460 1460 1460 1460 1460 1460 1460
          1460 1460 1460 1460 1460 1460 1460 1460 1460 1460 1460 1460
          1460 1460 1460 1460 1460 1460 1460 1460 1460 1460 1460 1460
          1460 1460 1460 1460 1460 1460 1460 1460 1460 1460 1460 1460
          1460 1460 1460 1460 1460 1460 1460 1460 1460 1460 1460 1460
          1460 1460 1460 1460 1460 1460 1460 1460 1460 1460 1460 1460
          1460 1460 1460 1460 1460 1460 1460 1460 1460 1460 1460 1460
          1460 1460 1460 1460 1460 1460 1460 1460 1460 1460 1460 1460
          1460 1460 1460 1460 1460 1460 1460 1460 1460 1460 1460 1460
          1460 1460 1460 1460 1460 1460 1460 1460 1460 1460 1460 1460
          1460 1460 1460 1460 1460 1460 1460 1460 1460 1460 1460 1460
          1460 1460 1460 1460 1460 1460 1460 1460 1460 1460 1460 1460
          1460 1460 1460 1460 1460 1460 1460 1460 1460 1460 1460 1460
          1460 1460 1460 1460 1460 1460 1460 1460 1460 1460 1460 1460
          1460 1460 1460 1460 1460 1460 1460 1460 1460 1460 1460 1460
          1460 1460 1460 1460 1460 1460 1460 1460 1460 1460 1460 1460
          1460 1460 1460 1460 1460 1460 1460 1460 1460 1460 1460 1460
          1460 1460 1460 1460 1460 1460 1460 1460 1460 1460 1460 1460
          1460 1460 1460 1460 1460 1460 1460 1460 1460 1460 1460 1460
          1460 1460 1460 1460 1460 1460 1460 1460 1460 1460 1460 1460
          1460 1460 1460 1460 1460 1460 1460 1460 1460 1460 1460 1460
          1460 1460 1460 1460 1460 1460 1460 1460 1460 1460 1460 1460
          1460 1460 1460 1460 1460 1460 1460 1460 1460 1460 1460 1460
          1460 1460 1460 1460 1460 1460 1460 1460 1460 1460 1460 1460
          1460 1460 1460 1460 1460 1460 1460 1460 1460 1460 1460 1460
          1460 1460 1460 1460 1460 1460 1460 1460 1460 1460 1460 1460
          1460 1460 1460 1460 1460 1460 1460 1460 1460 1460 1460 1460
          1460 1460 1460 1460 1460 1460 1460 1460 1460 1460 1460 1460
          1460 1460 1460 1460 1460 1460 1460 1460 1460 1460 1460 1460
          1460 1460 1460 1460 1460 1460 1460 1460 1460 1460 1460 1460
          1460 1460 1460 1460 1460 1460 1460 1460 1460 1460 1460 1460
          1460 1460 1460 1460 1460 1460 1460 1460 1460 1460 1460 1460
          1460 1460 1460 1460 1460 1460 1460 1460 1460 1460 1460 1460
          1460 1460 1460 1460 1460 1460 1460 1460 1460 1460 1460 1460
          1460 1460 1460 1460 1460 1460 1460 1460 1460 1460 1460 1460
          1460 1460 1460 1460 1460 1460 1460 1460 1460 1460 1460 1460
          1460 1460 1460 1460 1460 1460 1460 1460 1460 1460 1460 1460
          1460 1460 1460 1460 1460 1460 1460 1460 1460 1460 1460 1460
          1460 1460 1460 1460 1460 1460 1460 1460 1460 1460 1460 1460
          1460 1460 1460 1460 1460 1460 1460 1460 1460 1460 1460 1460
          1460 1460 1460 1460 1460 1460 1460 1460 1460 1460 1460 1460
          1460 1460 1460 1460 1460 1460 1460 1460 1460 1460 1460 1460
          1460 1460 1460 1460 1460 1460 1460 1460 1460 1460 1460 1460
          1460 1460 1460 1460 1460 1460 1460 1460 1460 1460 1460 1460
          1460 1460 1460 1460 1460 1460 1460 1460 1460 1460 1460 1460
          1460 1460 1460 1460 1460 1460 1460 1460 1460 1460 1460 1460
          1460 1460 1460 1460 1460 1460 1460 1460 1460 1460 1460 1460
          1460 1460 1460 1460 1460 1460 1460 1460 1460 1460 1460 1460
          1460 1460 1460 1460 1460 1460 1460 1460 1460 1460 1460 1460
          1460 1460 1460 1460 1460 1460 1460 1460 1460 1460 1460 1460
          1460 1460 1460 1460 1460 1460 1460 1460 1460 1460 1460 1460
          1460 1460 1460 1460 1460 1460 1460 1460 1460 1460 1460 1460
          1460 1460 1460 1460 1460 1460 1460 1460 1460 1460 1460 1460
          1460 1460 1460 1460 1460 1460 1460 1460 1460 1460 1460 1460
          1460 1460 1460 1460 1460 1460 1460 1460 1460 1460 1460 1460
          1460 1460 1460 1460 1460 1460 1460 1460 1460 1460 1460 1460
          1460 1460 1460 1460 1460 1460 1460 1460 1460 1460 1460 1460
          1460 1460 1460 1460 1460 1460 1460 1460 1460 1460 1460 1460
          1460 1460 1460 1460 1460 1460 1460 1460 1460 1460 1460 1460
          1460 1460 1460 1460 1460 1460 1460 1460 1460 1460 1460 1460
          1460 1460 1460 1460 1460 1460 1460 1460 1460 1460 1460 1460
          1460 1460 1460 1460 1460 1460 1460 1460 1460 1460 1460 1460
          1460 1460 1460 1460 1460 1460 1460 1460 1460 1460 1460 1460
          1460 1460 1460 1460 1460 1460 1460 1460 1460 1460 1460 1460
          1460 1460 1460 1460 1460 1460 1460 1460 1460 1460 1460 1460
          1460 1460 1460 1460 1460 1460 1460 1460 1460 1460 1460 1460
          1460 1460 1460 1460 1460 1460 1460 1460 1460 1460 1460 1460
          1460 1460 1460 1460 1460 1460 1460 1460 1460 1460 1460 1460
          1460 1460 1460 1460 1460 1460 1460 1460 1460 1460 1460 1460
          1460 1460 1460 1460 1460 1460 1460 1460 1460 1460 1460 1460
          1460 1460 1460 1460 1460 1460 1460 1460 1460 1460 1460 1460
          1460 1460 1460 1460 1460 1460 1460 1460 1460 1460 1460 1460
          1460 1460 1460 1460 1460 1460 1460 1460 1460 1460 1460 1460
          1460 1460 1460 1460 1460 1460 1460 1460
        </DataArray>
        <DataArray type="Float32" Name="saturation_wetting" NumberOfComponents="1" format="ascii">
          -1.86388e-34 0 0 -2.21921e-29 -3.07018e-29 0 0 1.53805e-27 5.90775e-29 -1.38307e-35 0 -1.69803e-34
          5.85611e-28 0 7.97529e-28 -4.92029e-29 1.26635e-35 -1.01615e-35 1.74557e-35 9.80462e-28 1.13713e-35 1.13145e-27 -5.70263e-28 0
          1.14272e-27 0 0 -1.61389e-27 4.17661e-30 -1.40359e-36 -1.61429e-27 0 -1.44065e-27 0 3.83838e-29 2.41873e-27
          -8.03468e-29 0 -1.70847e-27 3.45345e-28 0 0 1.08365e-27 -5.74738e-29 -9.22343e-36 1.67328e-30 3.97705e-27 1.40609e-27
          1.2776e-27 2.74004e-27 8.18456e-36 0 4.45581e-29 1.46321e-27 1.4114e-34 1.99656e-27 7.16019e-28 -3.78622e-27 0 2.45988e-29
          -1.86211e-29 -3.69027e-28 1.6292e-27 -2.88837e-35 2.22638e-29 1.43123e-27 -5.17932e-29 -8.95104e-36 -2.82161e-30 0 1.42703e-27 0
          -5.96858e-29 -5.38421e-28 3.52808e-29 0 7.27046e-28 6.15453e-31 3.45928e-27 4.17498e-29 0 3.52317e-29 0 8.1248e-38
          -2.10613e-29 0 4.68228e-30 -2.36821e-29 7.60067e-35 -9.70238e-30 -1.27561e-27 -1.97919e-29 -2.37197e-29 1.34376e-34 0 3.65211e-28
          1.91062e-29 1.06042e-28 3.79598e-27 0 2.81034e-27 4.4408e-28 -6.2197e-31 4.1571e-35 1.10052e-27 2.03167e-27 -3.64211e-27 -2.77133e-28
          -4.30609e-28 3.72405e-28 2.69054e-27 -1.72221e-27 -2.51764e-29 3.17764e-27 6.92667e-28 1.38629e-35 2.81902e-29 0 1.49696e-34 1.5942e-29
          4.02923e-29 0 7.78855e-29 -6.28054e-36 0 0 1.904e-29 0 0 1.03062e-27 1.19523e-27 0
          -4.21068e-27 0 0 2.03095e-29 1.77886e-35 1.15712e-27 0 -9.4014e-35 -1.30353e-36 2.55004e-29 6.01475e-28 0