<?xml version="1.0"?>
<VTKFile type="UnstructuredGrid" version="0.1" byte_order="LittleEndian">
  <UnstructuredGrid>
    <Piece NumberOfCells="1883" NumberOfPoints="980">
      <PointData Scalars="pressure_wetting">
        <DataArray type="Float32" Name="pressure_wetting" NumberOfComponents="1" format="ascii">
          91797.9 91823.2 91797.8 91799.6 91748.8 91709.8 91748.6 91637.9 91770.1 91774.8 91773 91768.5
          91774.5 91767.8 91764.4 91777.2 91771.4 91778.8 91763.9 91775 91767.3 91760 91780.8 91781.6
          91778.5 91773.4 91770.2 91760.5 91758.9 91774.1 91784.4 91776.5 91764.1 91767 91781.9 91785
          91786.2 91779.7 91756.2 91763.8 91757.8 91764 91753.7 91767.1 91789.1 91760.4 91760.9 91762.5
          91789.8 91771.1 91754.1 91782.8 91785 91789.2 91754.8 91753.9 91784.8 91751.5 91761 91755.5
          91775.9 91773.2 91756.5 91749 91762 91788.4 91749.5 91795 91753 91754.3 91747.8 91786
          91780.7 91766.4 91749.9 91757.9 91761.9 91746.7 91752.3 91747.6 91752.4 91754.9 91792 91794.7
          91744 91746 91751.6 91742.6 91743.2 91798 91743 91791.1 91776.3 91801.8 91789.2 91788.5
          91783.4 91801.2 91745.7 91754.9 91743 91751.5 91744.9 91750.7 91795.5 91752.6 91747.9 91798.9
          91768.2 91739.5 91793.9 91730.5 91742.4 91738.5 91733.2 91737.2 91749.9 91792.3 91735.6 91780.4
          91738.6 91741.4 91787.1 91811.4 91744.1 91738.8 91743.8 91751.5 91771 91812.2 91805.3 91797.5
          91739.3 91746.7 91753.7 91745.2 91779 91796.3 91736.1 91757.1 91731.6 91795.5 91734.4 91749.4
          91812.9 91792 91733.5 91749.3 91737.8 91795.4 91742.9 91778.1 91760 91797.7 91736.7 91733.8
          91731.9 91786.6 91723.9 91750.1 91740.3 91731.4 91734.4 91744.8 91739.6 91737.2 91824.9 91797.8
          91730.9 91828.8 91745.7 91729.6 91766.9 91709 91797.8 91731.6 91735.9 91747.9 91765.8 91728
          91728.8 91797.2 91793.5 91749.8 91732.2 91776.3 91728.3 91751.8 91784.2 91731.7 91737.5 91725.9
          91790.8 91720.4 91843.2 91704.5 91749.7 91735.4 91727 91820.7 91797.1 91724.8 91732 91785.5
          91752.7 91711.1 91816.2 91741.7 91853.1 91728.6 91841.7 91738 91723.7 91749.6 91725.9 91743.1
          91753 91722.8 91724.8 91741 91842.6 91768.5 91818.7 91719.9 91797.2 91798.6 91853.2 91733.2
          91737 91726.8 91705.5 91685.4 91780.6 91727.8 91790.7 91720.9 91813.8 91722.5 91730.3 91726.2
          91873.9 91875.9 91718.4 91749.3 91809.4 91728.3 91718.9 91729.8 91846.5 91723.2 91677.3 91742.6
          91737.2 91735.1 91749.3 91797.3 91876.1 91809.8 91836.9 91714.9 91722.4 91712.4 91730.7 91717.1
          91718.3 91746.3 91763.2 91874.7 91790.4 91759.7 91891.2 91802.3 91774.9 91720.4 91720.7 91818
          91801.9 91673.8 91902 91723.2 91704.2 91722.8 91711.1 91722.9 91859.2 91712.7 91707.7 91882.6
          91722.8 91731.6 91797.3 91723 91904.5 91703.4 91717.7 91727.7 91749.1 91722.5 91749 91772.7
          91828 91831.5 91703.7 91731.7 91875.1 91723 91714.1 91673 91721.4 91752.1 91733.9 91702
          91786.5 91912.7 91704.5 91702.3 91823.3 91723.1 91835.8 91767 91718.9 91752.7 91713.6 91739.8
          91778 91666.6 91722.8 91832.3 91713.5 91696.8 91649.3 91797.4 91928 91704.9 91723 91709
          91805.1 91828.2 91709.8 91723.1 91670.4 91675.3 91723.4 91727.4 91760.2 91928.9 91716.3 91708.2
          91748.9 91708.5 91700.4 91879.7 91948.1 91748.7 91853.8 91778.6 91762 91643.5 91844.8 91632.3
          91724.1 91692.8 91908 91695.2 91723.2 91682.1 91692.7 91749.9 91725.4 91688.4 91858.3 91724.8
          91722.7 91713.7 91709.8 91677.9 91775.1 91797.5 91795.1 91738.6 91873 91659.5 91841.6 91676.2
          91684.7 91684.9 91723.2 91930.7 91787.2 91703.1 91850.3 91875 91763.5 91692.1 91699.9 91685.5
          91697.4 91723.2 91726 91808.3 91724.2 91816.6 91831.5 91624.3 91711.1 91610.6 91706.1 91762.8
          91780 91674.3 91635.6 91905.7 91696.2 91742.2 91727.1 91748.4 91602.2 91851.7 91987.3 91658.2
          91722.7 91725.6 91569.3 91965.9 91661.4 91681.4 91797.5 91848.4 91665.6 91723.8 91666.3 91624.7
          91799.4 91662 91723.3 91565.7 91784 91905.8 91743.4 91890.2 91612.8 91708.8 91698.7 92004
          91713.8 91644 91663.3 91855.3 91912 91727.4 91729.4 91664.4 91579.6 91866.2 91702.2 91663.4
          91989.5 91729.5 91675.2 92020.3 91642.2 91658.1 91818.5 91845 91603.7 91755.1 91811.4 91725.1
          91664.2 91592.1 91774.3 91581.1 91628.4 91722.6 91534.5 91760.6 91706.7 91723.3 91957.6 91682.7
          91797.6 91674.4 91695.9 91748.1 91513 91655.3 91546.9 91505.2 91885 91635.3 91624.6 91732.6
          91788.1 91727.4 91805.9 91711.4 91781.9 91723.9 91916.9 91661.2 91733.2 91887.6 91467.7 91960.8
          91594.1 91671.9 91597.5 91973 91608.4 91542.5 91704.5 91742 91692.3 91873.7 91625.7 91891.2
          91723.3 91617.9 91633.4 91737 91853.6 91730.3 91626.4 91693 91544.3 91643.6 91549.1 91492.2
          91777 91828.7 92087.1 92089 91722.6 91761.7 91741.3 91977.1 91797.6 91726.2 91652.9 91829.3
          91934.3 91814.6 91436.5 91734 92061.2 91420.9 91690 91768.8 91544.6 91798.3 91613.3 91575.5
          91747.9 91702.5 91585.8 91923.3 92038.6 91930.1 91669.7 91744.4 91512.8 91739.2 91587.1 91729.3
          91507.2 91593.2 91907.1 91574.6 91642.1 91616.5 91647.4 91521.9 91941.7 91744.4 91397.6 91753.9
          91763.4 91872.7 91446.5 91597 91724.6 91868.9 91560.9 91797.6 91785.4 91722.6 91677.7 91770.7
          91793.8 91635.6 91700.3 91409.3 92081 91535.5 91982.4 91727.2 91815.9 91531 91721 91738.6
          91588.5 91979.4 91817.5 91349.4 91761.7 91733.4 91538.9 92184.9 91525.2 92043.7 91599.8 91512.4
          91747.7 91754.9 91634.1 91679.2 91430.3 91453.3 91519.8 92085 92001.5 91464.9 91906.6 91394.6
          91754.3 92152.5 91745.6 91359.3 91692.7 92218.1 91730.5 91275.6 91861.4 91785.2 91698 91725.4
          91766.5 91828 91518 91296.4 91915.4 91956.5 91528.5 91722.5 91797.6 91777.1 91635 91495.8
          91657.8 91801 91657.4 91596.5 91782.2 91597.1 91813.7 91747.6 92079.6 91294.2 91847.4 91467.6
          91344.3 91426.7 91736.9 92267.9 91981.8 91422 91820.5 92112.1 91284.9 91360.3 91768.4 91492.9
          91744.2 91421.9 91798.2 91208.6 92068 91695.5 91383.5 91593.1 91574.2 91726.6 91278.6 91434.4
          91692.1 91460.7 92216.5 91780.1 91909.3 91655.4 91797.7 91722.5 91761.8 92089.4 91324.8 91625.8
          91731.4 91427 92066.5 91619.4 91453.8 91868.3 91882 91835.8 91483.9 91505.5 91959 91696.8
          91648.7 91673.6 91601.2 91391.3 91741.5 91542.1 91735.6 91228 91150.1 91226.7 92318.3 91737.1
          91823.7 91755.9 92441.1 92162.2 91251.5 91769 91693.1 92362.2 91481.2 92420.7 91555.4 92681.5
          91139.5 91106.2 91665 92328.9 91572.9 91478 91727.4 91759.6 91978.5 91916.7 91696.1 91334.1
          91797.7 91787.9 91073.3 91722.5 91202.9 91747.3 91037.3 91862.2 92163.1 91733.5 91342.9 91444
          91900 91872.8 91621.2 91312.2 91742.2 92132.1 92320.3 92185 91780.9 91812.6 91011 91138.4
          91356.4 91690.8 92263.5 91392.2 98354.3 91549 91580.9 92730.8 93406.1 91852.4 92059.3 91771
          92451.8 91477.1 91727.6 91676.8 91638.2 90959.9 90593.3 90614 91827.8 91840.2 91797.7 91722.5
          93152.6 91392.6 92011.5 92040.6 91901.1 90907.5 90582.5 93689.4 92611.9 92463.8 92767.9 93003.8
          91359 91707.9 91725.3 91896.4 91741.5 91962.8 91435.1 91330 91752.8 91276.2 90848 90572.2
          91688.6 91753.4 91753.6 91776.2 91592.4 91454 91213.1 91781.9 91811.3 94723.7 91879.8 92759.6
          99702.8 91682.9 91706.9 91699.1 91293.1 91203.7 92147 90997.8 91477.6 91722.5 91733.1 91731.2
          91773.7 90924.8 90804.9 90578.1 93150.5 92027.9 91187.3 91830.2 91797.7 90869.4 90591.6 91860.2
          92259.8 91865.2 91722.5 90997.4 90620.1 91164.9 91649.8 91671.2 93586.3 93404.2 91633 91595.3
          91740.2 91738 91804.7 94974.9 91686.7 91746.2 91746 92438.4 91369.3 91832.4 91851.8 91752.4
          91757.8 91137.2 90744.6 91538.4 91538.8 91481.7 91121.4 90989.3 92692.4 95342.3 94616.9 91906.5
          91173.9 91774.3 91797.7 91776.4 91266.9 91129.9 99955.9 100000 91817.6 93008.4 91954.8 91797.7
          91822 91876.4 91685 91683.7 90723.6 91383 91464 95965.3 94785.4 91368.1 91199 91945.9
          91960.1 91855.8 91113.6 90612.5 91019.5 92872.4 93050.4 92770.8 93452 93369.8 91844.1 91853
          90998.6 92117.4 91884.4 91093 90830.7 90563.9 90900.4 90587 90585.7 92340 90988.8 90924.3
          92019.9 91900.7 91876.5 91877.6 92228.1 93164.1 91908.4 91946.9 90871.5 90570.6 92624.1 92545.3
          91966.6 92003 91916.7 91908.4 92445.6 92379.2 90936.4 91148.2 90800.9 90563.6 91052.4 90879.9
          91871.3 91881.4 90784.8 90566.2 92147.7 92065.5 92092.2 92028.6 90818.4 90575.2 92311.6 92255.2
          92193.5 92192.4 90596.4 90847.8 91895.8 91894.4 90795.5 90581.4
        </DataArray>
        <DataArray type="Float32" Name="pressure_nonwetting" NumberOfComponents="1" format="ascii">
          101285 101310 101285 101286 101236 101197 101235 101125 101257 101262 101260 101255
          101261 101255 101251 101264 101258 101266 101251 101262 101254 101247 101268 101268
          101265 101260 101257 101247 101246 101261 101271 101263 101251 101254 101269 101272
          101273 101267 101243 101251 101245 101251 101240 101254 101276 101247 101248 101249
          101277 101258 101241 101270 101272 101276 101242 101241 101272 101238 101248 101242
          101263 101260 101243 101236 101249 101275 101236 101282 101240 101241 101235 101273
          101268 101253 101237 101245 101249 101234 101239 101234 101239 101242 101279 101282
          101231 101233 101238 101229 101230 101285 101230 101278 101263 101289 101276 101275
          101270 101288 101233 101242 101230 101238 101232 101238 101282 101239 101235 101286
          101255 101226 101281 101217 101229 101225 101220 101224 101237 101279 101222 101267
          101225 101228 101274 101298 101231 101226 101231 101238 101258 101299 101292 101284
          101226 101234 101241 101232 101266 101283 101223 101244 101218 101282 101221 101236
          101300 101279 101220 101236 101225 101282 101230 101265 101247 101285 101224 101221
          101219 101273 101211 101237 101227 101218 101221 101232 101226 101224 101312 101285
          101218 101316 101233 101216 101254 101196 101285 101218 101223 101235 101253 101215
          101216 101284 101280 101237 101219 101263 101215 101239 101271 101219 101224 101213
          101278 101207 101330 101191 101237 101222 101214 101308 101284 101212 101219 101272
          101240 101198 101303 101229 101340 101215 101329 101225 101211 101236 101213 101230
          101240 101210 101212 101228 101329 101255 101306 101207 101284 101285 101340 101220
          101224 101214 101192 101172 101267 101215 101278 101208 101301 101209 101217 101213
          101361 101363 101205 101236 101296 101215 101206 101217 101333 101210 101164 101229
          101224 101222 101236 101284 101363 101297 101324 101202 101209 101199 101218 101204
          101205 101233 101250 101362 101277 101247 101378 101289 101262 101207 101208 101305
          101289 101161 101389 101210 101191 101210 101198 101210 101346 101200 101195 101369
          101210 101218 101284 101210 101391 101190 101205 101215 101236 101209 101236 101260
          101315 101318 101191 101219 101362 101210 101201 101160 101208 101239 101221 101189
          101273 101400 101191 101189 101310 101210 101323 101254 101206 101240 101200 101227
          101265 101153 101210 101319 101200 101184 101136 101284 101415 101192 101210 101196
          101292 101315 101197 101210 101157 101162 101210 101214 101247 101416 101203 101195
          101236 101195 101187 101367 101435 101236 101341 101265 101249 101130 101332 101119
          101211 101180 101395 101182 101210 101169 101180 101237 101212 101175 101345 101212
          101210 101200 101197 101165 101262 101284 101282 101225 101360 101146 101328 101163
          101172 101172 101210 101418 101274 101190 101337 101362 101250 101179 101187 101172
          101184 101210 101213 101295 101211 101303 101318 101111 101198 101097 101193 101250
          101267 101161 101122 101393 101183 101229 101214 101235 101089 101338 101474 101145
          101210 101212 101056 101453 101148 101168 101284 101335 101152 101211 101153 101112
          101286 101149 101210 101053 101271 101393 101230 101377 101100 101196 101186 101491
          101201 101131 101150 101342 101399 101214 101216 101151 101066 101353 101189 101150
          101476 101216 101162 101507 101129 101145 101305 101332 101091 101242 101298 101212
          101151 101079 101261 101068 101115 101209 101021 101247 101193 101210 101444 101170
          101284 101161 101183 101235 101000 101142 101034 100992 101372 101122 101111 101219
          101275 101214 101293 101198 101269 101211 101404 101148 101220 101374 100955 101448
          101081 101159 101084 101460 101095 101029 101191 101229 101179 101361 101113 101378
          101210 101105 101120 101224 101340 101217 101113 101180 101031 101130 101036 100979
          101264 101316 101574 101576 101209 101249 101228 101464 101284 101213 101140 101316
          101421 101301 100923 101221 101548 100908 101177 101256 101031 101285 101100 101062
          101235 101189 101073 101410 101525 101417 101157 101231 101000 101226 101074 101216
          100994 101080 101394 101061 101129 101103 101134 101009 101429 101231 100884 101241
          101250 101360 100933 101084 101211 101356 101048 101284 101272 101209 101164 101258
          101281 101122 101187 100896 101568 101022 101469 101214 101303 101018 101208 101225
          101075 101466 101304 100836 101248 101220 101026 101672 101012 101530 101087 100999
          101235 101242 101121 101166 100917 100940 101007 101572 101488 100952 101393 100881
          101241 101639 101232 100846 101180 101705 101217 100762 101348 101272 101185 101212
          101253 101315 101005 100783 101402 101443 101015 101209 101284 101264 101122 100983
          101145 101288 101144 101083 101269 101084 101301 101234 101566 100781 101334 100954
          100831 100914 101224 101755 101469 100909 101307 101599 100772 100847 101255 100980
          101231 100909 101285 100695 101555 101182 100870 101080 101061 101213 100765 100921
          101179 100948 101703 101267 101396 101142 101284 101209 101249 101576 100812 101113
          101218 100914 101553 101106 100941 101355 101369 101323 100971 100992 101446 101184
          101136 101160 101088 100878 101228 101029 101222 100715 100637 100714 101805 101224
          101311 101243 101928 101310 100738 101256 101180 101849 100968 101902 101042 102168
          100626 100593 101152 101807 101060 100965 101214 101246 101465 101403 101183 100821
          101284 101275 100560 101209 100690 101234 100524 101349 101650 101220 100830 100931
          101387 101360 101108 100799 101229 101619 101807 101672 101268 101299 100498 100625
          100843 101178 101750 100879 101312 101036 101068 102218 102601 101339 101546 101258
          101939 100964 101214 101164 101125 100447 100080 100101 101315 101327 101285 101209
          102639 100879 101498 101527 101388 100394 100069 102669 102099 101951 102255 102491
          100846 101195 101212 101383 101228 101450 100922 100817 101240 100763 100335 100059
          101175 101240 101240 101263 101079 100941 100700 101269 101298 103303 101367 102246
          101290 101170 101194 101186 100780 100691 101634 100485 100964 101209 101220 101218
          101261 100412 100292 100065 102637 101515 100674 101317 101285 100356 100078 101347
          101747 101352 101209 100484 100107 100652 101137 101158 103073 102891 101120 101082
          101227 101225 101292 103335 101174 101233 101233 101925 100856 101319 101339 101239
          101245 100624 100231 101025 101026 100969 100608 100476 102179 103585 103419 101393
          100661 101261 101284 101263 100754 100617 101233 101000 101304 102495 101442 101285
          101309 101363 101172 101171 100210 100870 100951 103432 103323 100855 100686 101433
          101447 101343 100600 100099 100506 102359 102537 102258 102939 102857 101331 101340
          100485 101604 101371 100580 100318 100051 100387 100074 100073 101827 100476 100411
          101507 101388 101363 101364 101715 102651 101395 101434 100358 100057 102111 102032
          101453 101490 101404 101395 101932 101866 100423 100635 100288 100050 100539 100367
          101358 101368 100272 100053 101634 101552 101579 101515 100305 100062 101798 101742
          101680 101679 100083 100335 101383 101381 100282 100068
        </DataArray>
        <DataArray type="Float32" Name="density_wetting" NumberOfComponents="1" format="ascii">
          1000 1000 1000 1000 1000 1000 1000 1000 1000 1000 1000 1000
          1000 1000 1000 1000 1000 1000 1000 1000 1000 1000 1000 1000
          1000 1000 1000 1000 1000 1000 1000 1000 1000 1000 1000 1000
          1000 1000 1000 1000 1000 1000 1000 1000 1000 1000 1000 1000
          1000 1000 1000 1000 1000 1000 1000 1000 1000 1000 1000 1000
          1000 1000 1000 1000 1000 1000 1000 1000 1000 1000 1000 1000
          1000 1000 1000 1000 1000 1000 1000 1000 1000 1000 1000 1000
          1000 1000 1000 1000 1000 1000 1000 1000 1000 1000 1000 1000
          1000 1000 1000 1000 1000 1000 1000 1000 1000 1000 1000 1000
          1000 1000 1000 1000 1000 1000 1000 1000 1000 1000 1000 1000
          1000 1000 1000 1000 1000 1000 1000 1000 1000 1000 1000 1000
          1000 1000 1000 1000 1000 1000 1000 1000 1000 1000 1000 1000
          1000 1000 1000 1000 1000 1000 1000 1000 1000 1000 1000 1000
          1000 1000 1000 1000 1000 1000 1000 1000 1000 1000 1000 1000
          1000 1000 1000 1000 1000 1000 1000 1000 1000 1000 1000 1000
          1000 1000 1000 1000 1000 1000 1000 1000 1000 1000 1000 1000
          1000 1000 1000 1000 1000 1000 1000 1000 1000 1000 1000 1000
          1000 1000 1000 1000 1000 1000 1000 1000 1000 1000 1000 1000
          1000 1000 1000 1000 1000 1000 1000 1000 1000 1000 1000 1000
          1000 1000 1000 1000 1000 1000 1000 1000 1000 1000 1000 1000
          1000 1000 1000 1000 1000 1000 1000 1000 1000 1000 1000 1000
          1000 1000 1000 1000 1000 1000 1000 1000 1000 1000 1000 1000
          1000 1000 1000 1000 1000 1000 1000 1000 1000 1000 1000 1000
          1000 1000 1000 1000 1000 1000 1000 1000 1000 1000 1000 1000
          1000 1000 1000 1000 1000 1000 1000 1000 1000 1000 1000 1000
          1000 1000 1000 1000 1000 1000 1000 1000 1000 1000 1000 1000
          1000 1000 1000 1000 1000 1000 1000 1000 1000 1000 1000 1000
          1000 1000 1000 1000 1000 1000 1000 1000 1000 1000 1000 1000
          1000 1000 1000 1000 1000 1000 1000 1000 1000 1000 1000 1000
          1000 1000 1000 1000 1000 1000 1000 1000 1000 1000 1000 1000
          1000 1000 1000 1000 1000 1000 1000 1000 1000 1000 1000 1000
          1000 1000 1000 1000 1000 1000 1000 1000 1000 1000 1000 1000
          1000 1000 1000 1000 1000 1000 1000 1000 1000 1000 1000 1000
          1000 1000 1000 1000 1000 1000 1000 1000 1000 1000 1000 1000
          1000 1000 1000 1000 1000 1000 1000 1000 1000 1000 1000 1000
          1000 1000 1000 1000 1000 1000 1000 1000 1000 1000 1000 1000
          1000 1000 1000 1000 1000 1000 1000 1000 1000 1000 1000 1000
          1000 1000 1000 1000 1000 1000 1000 1000 1000 1000 1000 1000
          1000 1000 1000 1000 1000 1000 1000 1000 1000 1000 1000 1000
          1000 1000 1000 1000 1000 1000 1000 1000 1000 1000 1000 1000
          1000 1000 1000 1000 1000 1000 1000 1000 1000 1000 1000 1000
          1000 1000 1000 1000 1000 1000 1000 1000 1000 1000 1000 1000
          1000 1000 1000 1000 1000 1000 1000 1000 1000 1000 1000 1000
          1000 1000 1000 1000 1000 1000 1000 1000 1000 1000 1000 1000
          1000 1000 1000 1000 1000 1000 1000 1000 1000 1000 1000 1000
          1000 1000 1000 1000 1000 1000 1000 1000 1000 1000 1000 1000
          1000 1000 1000 1000 1000 1000 1000 1000 1000 1000 1000 1000
          1000 1000 1000 1000 1000 1000 1000 1000 1000 1000 1000 1000
          1000 1000 1000 1000 1000 1000 1000 1000 1000 1000 1000 1000
          1000 1000 1000 1000 1000 1000 1000 1000 1000 1000 1000 1000
          1000 1000 1000 1000 1000 1000 1000 1000 1000 1000 1000 1000
          1000 1000 1000 1000 1000 1000 1000 1000 1000 1000 1000 1000
          1000 1000 1000 1000 1000 1000 1000 1000 1000 1000 1000 1000
          1000 1000 1000 1000 1000 1000 1000 1000 1000 1000 1000 1000
          1000 1000 1000 1000 1000 1000 1000 1000 1000 1000 1000 1000
          1000 1000 1000 1000 1000 1000 1000 1000 1000 1000 1000 1000
          1000 1000 1000 1000 1000 1000 1000 1000 1000 1000 1000 1000
          1000 1000 1000 1000 1000 1000 1000 1000 1000 1000 1000 1000
          1000 1000 1000 1000 1000 1000 1000 1000 1000 1000 1000 1000
          1000 1000 1000 1000 1000 1000 1000 1000 1000 1000 1000 1000
          1000 1000 1000 1000 1000 1000 1000 1000 1000 1000 1000 1000
          1000 1000 1000 1000 1000 1000 1000 1000 1000 1000 1000 1000
          1000 1000 1000 1000 1000 1000 1000 1000 1000 1000 1000 1000
          1000 1000 1000 1000 1000 1000 1000 1000 1000 1000 1000 1000
          1000 1000 1000 1000 1000 1000 1000 1000 1000 1000 1000 1000
          1000 1000 1000 1000 1000 1000 1000 1000 1000 1000 1000 1000
          1000 1000 1000 1000 1000 1000 1000 1000 1000 1000 1000 1000
          1000 1000 1000 1000 1000 1000 1000 1000 1000 1000 1000 1000
          1000 1000 1000 1000 1000 1000 1000 1000 1000 1000 1000 1000
          1000 1000 1000 1000 1000 1000 1000 1000 1000 1000 1000 1000
          1000 1000 1000 1000 1000 1000 1000 1000 1000 1000 1000 1000
          1000 1000 1000 1000 1000 1000 1000 1000 1000 1000 1000 1000
          1000 1000 1000 1000 1000 1000 1000 1000 1000 1000 1000 1000
          1000 1000 1000 1000 1000 1000 1000 1000 1000 1000 1000 1000
          1000 1000 1000 1000 1000 1000 1000 1000 1000 1000 1000 1000
          1000 1000 1000 1000 1000 1000 1000 1000 1000 1000 1000 1000
          1000 1000 1000 1000 1000 1000 1000 1000 1000 1000 1000 1000
          1000 1000 1000 1000 1000 1000 1000 1000 1000 1000 1000 1000
          1000 1000 1000 1000 1000 1000 1000 1000 1000 1000 1000 1000
          1000 1000 1000 1000 1000 1000 1000 1000 1000 1000 1000 1000
          1000 1000 1000 1000 1000 1000 1000 1000 1000 1000 1000 1000
          1000 1000 1000 1000 1000 1000 1000 1000
        </DataArray>
        <DataArray type="Float32" Name="density_nonwetting" NumberOfComponents="1" format="ascii">
          1460 1460 1460 1460 1460 1460 1460 1460 1460 1460 1460 1460
          1460 1460 1460 1460 1460 1460 1460 1460 1460 1460 1460 1460
          1460 1460 1460 1460 1460 1460 1460 1460 1460 1460 1460 1460
          1460 1460 1460 1460 1460 1460 1460 1460 1460 1460 1460 1460
          1460 1460 1460 1460 1460 1460 1460 1460 1460 1460 1460 1460
          1460 1460 1460 1460 1460 1460 1460 1460 1460 1460 1460 1460
          1460 1460 1460 1460 1460 1460 1460 1460 1460 1460 1460 1460
          1460 1460 1460 1460 1460 1460 1460 1460 1460 1460 1460 1460
          1460 1460 1460 1460 1460 1460 1460 1460 1460 1460 1460 1460
          1460 1460 1460 1460 1460 1460 1460 1460 1460 1460 1460 1460
          1460 1460 1460 1460 1460 1460 1460 1460 1460 1460 1460 1460
          1460 1460 1460 1460 1460 1460 1460 1460 1460 1460 1460 1460
          1460 1460 1460 1460 1460 1460 1460 1460 1460 1460 1460 1460
          1460 1460 1460 1460 1460 1460 1460 1460 1460 1460 1460 1460
          1460 1460 1460 1460 1460 1460 1460 1460 1460 1460 1460 1460
          1460 1460 1460 1460 1460 1460 1460 1460 1460 1460 1460 1460
          1460 1460 1460 1460 1460 1460 1460 1460 1460 1460 1460 1460
          1460 1460 1460 1460 1460 1460 1460 1460 1460 1460 1460 1460
          1460 1460 1460 1460 1460 1460 1460 1460 1460 1460 1460 1460
          1460 1460 1460 1460 1460 1460 1460 1460 1460 1460 1460 1460
          1460 1460 1460 1460 1460 1460 1460 1460 1460 1460 1460 1460
          1460 1460 1460 1460 1460 1460 1460 1460 1460 1460 1460 1460
          1460 1460 1460 1460 1460 1460 1460 1460 1460 1460 1460 1460
          1460 1460 1460 1460 1460 1460 1460 1460 1460 1460 1460 1460
          1460 1460 1460 1460 1460 1460 1460 1460 1460 1460 1460 1460
          1460 1460 1460 1460 1460 1460 1460 1460 1460 1460 1460 1460
          1460 1460 1460 1460 1460 1460 1460 1460 1460 1460 1460 1460
          1460 1460 1460 1460 1460 1460 1460 1460 1460 1460 1460 1460
          1460 1460 1460 1460 1460 1460 1460 1460 1460 1460 1460 1460
          1460 1460 1460 1460 1460 1460 1460 1460 1460 1460 1460 1460
          1460 1460 1460 1460 1460 1460 1460 1460 1460 1460 1460 1460
          1460 1460 1460 1460 1460 1460 1460 1460 1460 1460 1460 1460
          1460 1460 1460 1460 1460 1460 1460 1460 1460 1460 1460 1460
          1460 1460 1460 1460 1460 1460 1460 1460 1460 1460 1460 1460
          1460 1460 1460 1460 1460 1460 1460 1460 1460 1460 1460 1460
          1460 1460 1460 1460 1460 1460 1460 1460 1460 1460 1460 1460
          1460 1460 1460 1460 1460 1460 1460 1460 1460 1460 1460 1460
          1460 1460 1460 1460 1460 1460 1460 1460 1460 1460 1460 1460
          1460 1460 1460 1460 1460 1460 1460 1460 1460 1460 1460 1460
          1460 1460 1460 1460 1460 1460 1460 1460 1460 1460 1460 1460
          1460 1460 1460 1460 1460 1460 1460 1460 1460 1460 1460 1460
          1460 1460 1460 1460 1460 1460 1460 1460 1460 1460 1460 1460
          1460 1460 1460 1460 1460 1460 1460 1460 1460 1460 1460 1460
          1460 1460 1460 1460 1460 1460 1460 1460 1460 1460 1460 1460
          1460 1460 1460 1460 1460 1460 1460 1460 1460 1460 1460 1460
          1460 1460 1460 1460 1460 1460 1460 1460 1460 1460 1460 1460
          1460 1460 1460 1460 1460 1460 1460 1460 1460 1460 1460 1460
          1460 1460 1460 1460 1460 1460 1460 1460 1460 1460 1460 1460
          1460 1460 1460 1460 1460 1460 1460 1460 1460 1460 1460 1460
          1460 1460 1460 1460 1460 1460 1460 1460 1460 1460 1460 1460
          1460 1460 1460 1460 1460 1460 1460 1460 1460 1460 1460 1460
          1460 1460 1460 1460 1460 1460 1460 1460 1460 1460 1460 1460
          1460 1460 1460 1460 1460 1460 1460 1460 1460 1460 1460 1460
          1460 1460 1460 1460 1460 1460 1460 1460 1460 1460 1460 1460
          1460 1460 1460 1460 1460 1460 1460 1460 1460 1460 1460 1460
          1460 1460 1460 1460 1460 1460 1460 1460 1460 1460 1460 1460
          1460 1460 1460 1460 1460 1460 1460 1460 1460 1460 1460 1460
          1460 1460 1460 1460 1460 1460 1460 1460 1460 1460 1460 1460
          1460 1460 1460 1460 1460 1460 1460 1460 1460 1460 1460 1460
          1460 1460 1460 1460 1460 1460 1460 1460 1460 1460 1460 1460
          1460 1460 1460 1460 1460 1460 1460 1460 1460 1460 1460 1460
          1460 1460 1460 1460 1460 1460 1460 1460 1460 1460 1460 1460
          1460 1460 1460 1460 1460 1460 1460 1460 1460 1460 1460 1460
          1460 1460 1460 1460 1460 1460 1460 1460 1460 1460 1460 1460
          1460 1460 1460 1460 1460 1460 1460 1460 1460 1460 1460 1460
          1460 1460 1460 1460 1460 1460 1460 1460 1460 1460 1460 1460
          1460 1460 1460 1460 1460 1460 1460 1460 1460 1460 1460 1460
          1460 1460 1460 1460 1460 1460 1460 1460 1460 1460 1460 1460
          1460 1460 1460 1460 1460 1460 1460 1460 1460 1460 1460 1460
          1460 1460 1460 1460 1460 1460 1460 1460 1460 1460 1460 1460
          1460 1460 1460 1460 1460 1460 1460 1460 1460 1460 1460 1460
          1460 1460 1460 1460 1460 1460 1460 1460 1460 1460 1460 1460
          1460 1460 1460 1460 1460 1460 1460 1460 1460 1460 1460 1460
          1460 1460 1460 1460 1460 1460 1460 1460 1460 1460 1460 1460
          1460 1460 1460 1460 1460 1460 1460 1460 1460 1460 1460 1460
          1460 1460 1460 1460 1460 1460 1460 1460 1460 1460 1460 1460
          1460 1460 1460 1460 1460 1460 1460 1460 1460 1460 1460 1460
          1460 1460 1460 1460 1460 1460 1460 1460 1460 1460 1460 1460
          1460 1460 1460 1460 1460 1460 1460 1460 1460 1460 1460 1460
          1460 1460 1460 1460 1460 1460 1460 1460 1460 1460 1460 1460
          1460 1460 1460 1460 1460 1460 1460 1460 1460 1460 1460 1460
          1460 1460 1460 1460 1460 1460 1460 1460
        </DataArray>
        <DataArray type="Float32" Name="saturation_wetting" NumberOfComponents="1" format="ascii">
          -0 -5.36333e-24 -0 9.71023e-24 -0 1.14487e-23 -0 4.05342e-25 8.44426e-24 -5.63103e-24 -1.08487e-23 2.20823e-24
          -3.00783e-24 -7.46655e-24 5.30265e-24 2.16626e-24 -1.50388e-24 -1.36324e-25 2.52634e-24 -2.25895e-24 1.82175e-24 2.52671e-24 2.25073e-23 1.21985e-24
          -9.45283e-24 0 0 4.6963e-25 -7.92879e-26 1.44333e-24 2.12762e-23 -0 -1.71385e-23 0 -2.82586e-24 3.72247e-24
          -1.79489e-23 0 -1.53291e-24 1.68204e-24 1.45731e-23 0 2.22586e-25 -3.47285e-24 -3.20632e-24 2.45201e-25 -3.86526e-25 -5.68934e-24
          -2.84372e-24 1.4667e-24 -8.4164e-25 -0 2.59519e-23 -5.71348e-24 -4.00264e-24 -5.75932e-24 -3.65827e-24 7.59101e-24 -0 -3.5523e-24
          -2.16693e-24 3.01055e-23 -2.49223e-24 -2.25231e-24 1.3579e-24 2.07491e-23 1.28239e-24 7.43626e-24 1.60278e-23 3.77703e-25 1.20387e-23 0
          -3.89329e-25 3.21422e-27 2.25602e-24 0 5.20749e-24 4.57583e-25 4.6522e-24 -2.8301e-24 1.71088e-25 1.46169e-23 1.58137e-24 -1.16638e-24
          4.69089e-24 9.50702e-26 -3.42417e-25 -4.26154e-24 -3.16244e-24 5.69897e-24 6.9244e-24 -1.55302e-24 -2.34745e-25 -2.69629e-24 0 9.45982e-26
          2.4129e-25 -2.42117e-24 7.50311e-25 -0 -3.59619e-24 4.41218e-26 2.37349e-25 1.30433e-23 -3.55982e-24 -1.86845e-23 1.69395e-23 -2.51212e-24
          2.44892e-25 -4.64734e-24 -3.62912e-24 1.75009e-28 3.11606e-24 -2.10966e-24 7.794e-25 -1.4031e-25 -2.15059e-24 0 -4.63638e-24 -8.27144e-24
          -9.99211e-25 -0 -7.39493e-25 5.84675e-25 0 -0 1.60634e-24 -0 -3.57323e-25 9.77764e-24 -1.14113e-24 -1.12658e-24