<?xml version="1.0"?>
<VTKFile type="UnstructuredGrid" version="0.1" byte_order="LittleEndian">
  <UnstructuredGrid>
    <Piece NumberOfCells="150" NumberOfPoints="204">
      <PointData Scalars="moleFrac_w^H2O">
        <DataArray type="Float32" Name="moleFrac_w^H2O" NumberOfComponents="1" format="ascii">
          0.999984 0.999984 0.999984 0.999984 0.999984 0.999984 0.999984 0.999984 0.999984 0.999984 0.999984 0.999984
          0.999984 0.999985 0.999985 0.999985 0.999985 0.999985 0.999985 0.999985 0.999985 0.999985 0.999985 0.999985
          0.999985 0.999985 0.999985 0.999985 0.999985 0.999985 0.999985 0.999985 0.999985 0.999985 0.999985 0.999985
          0.999985 0.999985 0.999985 0.999985 0.999985 0.999985 0.999985 0.999985 0.999985 0.999985 0.999985 0.999985
          0.999985 0.999985 0.999985 0.999985 0.999985 0.999985 0.999985 0.999985 0.999985 0.999985 0.999985 0.999985
          0.999985 0.999985 0.999985 0.999985 0.999985 0.999985 0.999985 0.999985 0.999985 0.999985 0.999985 0.999985
          0.999985 0.999985 0.999985 0.999985 0.999985 0.999985 0.999985 0.999985 0.999985 0.999985 0.999985 0.999985
          0.999985 0.999985 0.999985 0.999985 0.999985 0.999985 0.999985 0.999985 0.999985 0.999985 0.999985 0.999985
          0.999985 0.999985 0.999985 0.999985 0.999985 0.999985 0.999984 0.999984 0.999984 0.999984 0.999984 0.999984
          0.999985 0.999985 0.999985 0.999985 0.999985 0.999985 0.999985 0.999985 0.999985 0.999985 0.999985 0.999985
          0.999985 0.999985 0.999985 0.999985 0.999985 0.999985 0.999985 0.999985 0.999985 0.999985 0.999985 0.999985
          0.999985 0.999985 0.999985 0.999985 0.999985 0.999985 0.999985 0.999985 0.999985 0.999985 0.999985 0.999985
          0.999985 0.999985 0.999985 0.999985 0.999985 0.999985 0.999985 0.999985 0.999985 0.999984 0.999984 0.999984
          0.999984 0.999984 0.999981 0.999981 0.999981 0.999984 0.999985 0.999985 0.999985 0.999985 0.999985 0.999985
          0.999985 0.999985 0.999985 0.999985 0.999985 0.999985 0.999985 0.999985 0.999985 0.999985 0.999985 0.999985
          0.999985 0.999985 0.999985 0.999985 0.999985 0.999985 0.999985 0.999985 0.999985 0.999985 0.999985 0.999985
          0.999985 0.999985 0.999985 0.999985 0.999985 0.999985 0.999985 0.999985 0.999985 0.999985 0.999985 0.999985
        </DataArray>
        <DataArray type="Float32" Name="moleFrac_w^mesitylene" NumberOfComponents="1" format="ascii">
          -1.10282e-18 -4.73257e-18 -1.10249e-18 -1.45559e-18 -1.44198e-18 -1.4414e-18 -3.57107e-19 1.42785e-18 -3.5394e-19 4.59938e-18 3.03303e-16 1.15436e-12
          4.12214e-16 1.15186e-12 3.27127e-16 8.91329e-13 2.30614e-17 5.82043e-14 2.7403e-18 2.14822e-15 1.02346e-18 5.45625e-17 6.80032e-19 1.35952e-18
          -6.78192e-19 2.03376e-18 6.7672e-19 1.01467e-18 6.75556e-19 2.3635e-18 -2.36125e-18 1.01156e-18 -1.68484e-18 1.0105e-18 6.73392e-19 3.36561e-19
          1.00946e-18 0 1.68165e-18 1.00859e-18 1.00863e-18 -1.68038e-18 -1.00837e-18 6.71976e-19 6.72112e-19 1.00776e-18 1.00802e-18 3.35872e-19
          -6.71941e-19 -3.35836e-19 6.71887e-19 -2.68647e-18 1.00777e-18 -1.00737e-18 0 -1.00733e-18 1.0077e-18 -3.35765e-19 -1.00768e-18 0
          6.71773e-19 -6.71504e-19 -2.01529e-18 -3.35748e-19 6.71759e-19 -1.00724e-18 1.67939e-18 0 -1.00763e-18 6.71483e-19 3.35875e-19 1.00722e-18
          2.01525e-18 -6.7148e-19 6.71747e-19 -1.00722e-18 -6.71747e-19 0 1.34349e-18 1.00722e-18 2.35111e-18 1.00722e-18 -6.71746e-19 2.35017e-18
          -2.01524e-18 -2.01443e-18 -1.00762e-18 1.00721e-18 2.35111e-18 1.34295e-18 6.71745e-19 -3.35738e-19 6.71745e-19 2.35017e-18 -6.71746e-19 6.71477e-19
          1.00762e-18 -1.00722e-18 2.01525e-18 -2.01443e-18 -1.00744e-18 6.71425e-19 -1.10221e-18 -1.455e-18 1.08062e-18 -2.14092e-18 1.9403e-14 3.19587e-09
          2.71037e-09 2.38555e-09 1.52791e-10 5.61186e-12 1.37488e-13 2.4363e-15 3.21883e-17 3.0428e-18 1.68754e-18 -1.68526e-18 1.0101e-18 -3.36426e-18
          1.00866e-18 -3.36061e-19 1.34377e-18 0 -6.71574e-19 1.00721e-18 2.34991e-18 0 -3.35655e-19 -3.35641e-19 1.34252e-18 -2.01374e-18
          1.00685e-18 6.71227e-19 -1.00683e-18 -3.02048e-18 6.71214e-19 1.00682e-18 6.71211e-19 1.00681e-18 1.34242e-18 -1.00681e-18 -1.00681e-18 -3.35604e-19
          -1.00681e-18 -1.67802e-18 0 1.00681e-18 -3.35604e-19 1.67802e-18 -3.35604e-19 1.00681e-18 6.7126e-19 3.67296e-19 -2.54522e-18 6.48113e-18
          7.84691e-18 4.41944e-11 3.4029e-06 3.40292e-06 3.40294e-06 2.35706e-07 8.68252e-09 2.13265e-10 3.77402e-12 4.96514e-14 4.90709e-16 3.37372e-18
          6.73834e-19 -1.00969e-18 2.01775e-18 -6.72168e-19 1.00778e-18 -1.00742e-18 -1.00716e-18 -3.35653e-19 -3.35604e-19 -1.34227e-18 1.00662e-18 6.71042e-19
          1.67753e-18 -6.70992e-19 1.00647e-18 2.0129e-18 -2.01287e-18 6.70953e-19 2.01285e-18 -6.70946e-19 2.3483e-18 -6.70942e-19 -1.00641e-18 -6.7094e-19
          6.7094e-19 1.00641e-18 -6.70939e-19 3.3547e-19 -6.70939e-19 6.70939e-19 -1.34188e-18 -1.34188e-18 6.70939e-19 -1.00641e-18 -6.70935e-19 -1.00659e-18
        </DataArray>
        <DataArray type="Float32" Name="moleFrac_w^Air" NumberOfComponents="1" format="ascii">
          1.63943e-05 1.62336e-05 1.63893e-05 1.6227e-05 1.60736e-05 1.60671e-05 1.59207e-05 1.59143e-05 1.57779e-05 1.57715e-05 1.56473e-05 1.5641e-05
          1.55302e-05 1.55239e-05 1.54273e-05 1.5421e-05 1.53386e-05 1.53324e-05 1.52636e-05 1.52574e-05 1.52011e-05 1.5195e-05 1.51499e-05 1.51437e-05
          1.51084e-05 1.51023e-05 1.50752e-05 1.50691e-05 1.50489e-05 1.50428e-05 1.50284e-05 1.50223e-05 1.50124e-05 1.50063e-05 1.50001e-05 1.49941e-05
          1.49908e-05 1.49847e-05 1.49836e-05 1.49776e-05 1.49783e-05 1.49722e-05 1.49743e-05 1.49682e-05 1.49713e-05 1.49652e-05 1.49691e-05 1.4963e-05
          1.49674e-05 1.49613e-05 1.49662e-05 1.49601e-05 1.49653e-05 1.49593e-05 1.49647e-05 1.49586e-05 1.49642e-05 1.49581e-05 1.49639e-05 1.49578e-05
          1.49636e-05 1.49576e-05 1.49634e-05 1.49574e-05 1.49633e-05 1.49572e-05 1.49632e-05 1.49572e-05 1.49632e-05 1.49571e-05 1.49631e-05 1.4957e-05
          1.49631e-05 1.4957e-05 1.4963e-05 1.4957e-05 1.4963e-05 1.4957e-05 1.4963e-05 1.4957e-05 1.4963e-05 1.49569e-05 1.4963e-05 1.49569e-05
          1.4963e-05 1.49569e-05 1.4963e-05 1.49569e-05 1.4963e-05 1.49569e-05 1.4963e-05 1.49569e-05 1.4963e-05 1.49569e-05 1.4963e-05 1.49569e-05
          1.4963e-05 1.49569e-05 1.49631e-05 1.4957e-05 1.49603e-05 1.49558e-05 1.63851e-05 1.62204e-05 1.60605e-05 1.59078e-05 1.57651e-05 1.56347e-05
          1.55176e-05 1.54148e-05 1.53261e-05 1.52512e-05 1.51888e-05 1.51376e-05 1.50961e-05 1.5063e-05 1.50367e-05 1.50162e-05 1.50002e-05 1.4988e-05
          1.49786e-05 1.49715e-05 1.49662e-05 1.49621e-05 1.49591e-05 1.49569e-05 1.49553e-05 1.49541e-05 1.49532e-05 1.49525e-05 1.49521e-05 1.49517e-05
          1.49515e-05 1.49513e-05 1.49512e-05 1.49511e-05 1.4951e-05 1.4951e-05 1.49509e-05 1.49509e-05 1.49509e-05 1.49509e-05 1.49509e-05 1.49509e-05
          1.49509e-05 1.49509e-05 1.49509e-05 1.49509e-05 1.49509e-05 1.49509e-05 1.49509e-05 1.49509e-05 1.49521e-05 1.63803e-05 1.62137e-05 1.6054e-05
          1.59014e-05 1.57587e-05 1.56114e-05 1.54943e-05 1.53915e-05 1.53187e-05 1.5245e-05 1.51827e-05 1.51315e-05 1.509e-05 1.50569e-05 1.50306e-05
          1.50101e-05 1.49942e-05 1.49819e-05 1.49725e-05 1.49654e-05 1.49601e-05 1.49561e-05 1.49531e-05 1.49509e-05 1.49492e-05 1.4948e-05 1.49471e-05
          1.49465e-05 1.4946e-05 1.49457e-05 1.49454e-05 1.49453e-05 1.49451e-05 1.4945e-05 1.4945e-05 1.49449e-05 1.49449e-05 1.49449e-05 1.49448e-05
          1.49448e-05 1.49448e-05 1.49448e-05 1.49448e-05 1.49448e-05 1.49448e-05 1.49448e-05 1.49448e-05 1.49448e-05 1.49448e-05 1.49447e-05 1.49476e-05
        </DataArray>
        <DataArray type="Float32" Name="moleFrac_n^H2O" NumberOfComponents="1" format="ascii">
          1.09016e-05 1.09016e-05 1.09016e-05 1.09016e-05 1.09016e-05 1.09016e-05 1.09016e-05 1.09016e-05 1.09017e-05 1.09017e-05 1.09017e-05 1.09017e-05
          1.09017e-05 1.09017e-05 1.09017e-05 1.09017e-05 1.09017e-05 1.09017e-05 1.09017e-05 1.09017e-05 1.09017e-05 1.09017e-05 1.09017e-05 1.09017e-05
          1.09017e-05 1.09017e-05 1.09017e-05 1.09017e-05 1.09017e-05 1.09017e-05 1.09017e-05 1.09017e-05 1.09017e-05 1.09017e-05 1.09017e-05 1.09017e-05
          1.09017e-05 1.09017e-05 1.09017e-05 1.09017e-05 1.09017e-05 1.09017e-05 1.09017e-05 1.09017e-05 1.09017e-05 1.09017e-05 1.09017e-05 1.09017e-05
          1.09017e-05 1.09017e-05 1.09017e-05 1.09017e-05 1.09017e-05 1.09017e-05 1.09017e-05 1.09017e-05 1.09017e-05 1.09017e-05 1.09017e-05 1.09017e-05
          1.09017e-05 1.09017e-05 1.09017e-05 1.09017e-05 1.09017e-05 1.09017e-05 1.09017e-05 1.09017e-05 1.09017e-05 1.09017e-05 1.09017e-05 1.09017e-05
          1.09017e-05 1.09017e-05 1.09017e-05 1.09017e-05 1.09017e-05 1.09017e-05 1.09017e-05 1.09017e-05 1.09017e-05 1.09017e-05 1.09017e-05 1.09017e-05
          1.09017e-05 1.09017e-05 1.09017e-05 1.09017e-05 1.09017e-05 1.09017e-05 1.09017e-05 1.09017e-05 1.09017e-05 1.09017e-05 1.09017e-05 1.09017e-05
          1.09017e-05 1.09017e-05 1.09017e-05 1.09017e-05 1.09017e-05 1.09017e-05 1.09016e-05 1.09016e-05 1.09016e-05 1.09016e-05 1.09017e-05 1.09017e-05
          1.09017e-05 1.09017e-05 1.09017e-05 1.09017e-05 1.09017e-05 1.09017e-05 1.09017e-05 1.09017e-05 1.09017e-05 1.09017e-05 1.09017e-05 1.09017e-05
          1.09017e-05 1.09017e-05 1.09017e-05 1.09017e-05 1.09017e-05 1.09017e-05 1.09017e-05 1.09017e-05 1.09017e-05 1.09017e-05 1.09017e-05 1.09017e-05
          1.09017e-05 1.09017e-05 1.09017e-05 1.09017e-05 1.09017e-05 1.09017e-05 1.09017e-05 1.09017e-05 1.09017e-05 1.09017e-05 1.09017e-05 1.09017e-05
          1.09017e-05 1.09017e-05 1.09017e-05 1.09017e-05 1.09017e-05 1.09017e-05 1.09017e-05 1.09017e-05 1.09017e-05 1.09016e-05 1.09016e-05 1.09016e-05
          1.09016e-05 1.09017e-05 1.09016e-05 1.09016e-05 1.09016e-05 1.09017e-05 1.09017e-05 1.09017e-05 1.09017e-05 1.09017e-05 1.09017e-05 1.09017e-05
          1.09017e-05 1.09017e-05 1.09017e-05 1.09017e-05 1.09017e-05 1.09017e-05 1.09017e-05 1.09017e-05 1.09017e-05 1.09017e-05 1.09017e-05 1.09017e-05
          1.09017e-05 1.09017e-05 1.09017e-05 1.09017e-05 1.09017e-05 1.09017e-05 1.09017e-05 1.09017e-05 1.09017e-05 1.09017e-05 1.09017e-05 1.09017e-05
          1.09017e-05 1.09017e-05 1.09017e-05 1.09017e-05 1.09017e-05 1.09017e-05 1.09017e-05 1.09017e-05 1.09017e-05 1.09017e-05 1.09017e-05 1.09017e-05
        </DataArray>
        <DataArray type="Float32" Name="moleFrac_n^mesitylene" NumberOfComponents="1" format="ascii">
          -3.23782e-13 -1.38946e-12 -3.23685e-13 -4.27353e-13 -4.23358e-13 -4.23189e-13 -1.04845e-13 4.19211e-13 -1.03915e-13 1.35036e-12 8.90481e-11 3.38914e-07
          1.21024e-10 3.38182e-07 9.6043e-11 2.6169e-07 6.77071e-12 1.70885e-08 8.04537e-13 6.30706e-10 3.00482e-13 1.60193e-11 1.99654e-13 3.99148e-13
          -1.99114e-13 5.97102e-13 1.98682e-13 2.97903e-13 1.9834e-13 6.93911e-13 -6.93252e-13 2.96989e-13 -4.94661e-13 2.96678e-13 1.97704e-13 9.88127e-14
          2.96374e-13 0 4.93725e-13 2.96116e-13 2.9613e-13 -4.93353e-13 -2.96052e-13 1.97289e-13 1.97329e-13 2.95875e-13 2.9595e-13 9.86104e-14
          -1.97278e-13 -9.85998e-14 1.97263e-13 -7.88735e-13 2.95877e-13 -2.95758e-13 0 -2.95746e-13 2.95855e-13 -9.85789e-14 -2.95848e-13 0
          1.97229e-13 -1.9715e-13 -5.9168e-13 -9.85739e-14 1.97225e-13 -2.95719e-13 4.9306e-13 0 -2.95835e-13 1.97144e-13 9.86112e-14 2.95715e-13
          5.91666e-13 -1.97143e-13 1.97222e-13 -2.95714e-13 -1.97221e-13 0 3.94443e-13 2.95714e-13 6.90274e-13 2.95713e-13 -1.97221e-13 6.89998e-13
          -5.91663e-13 -5.91426e-13 -2.95832e-13 2.95713e-13 6.90274e-13 3.94284e-13 1.97221e-13 -9.85711e-14 1.97221e-13 6.89998e-13 -1.97221e-13 1.97142e-13
          2.95832e-13 -2.95713e-13 5.91667e-13 -5.91427e-13 -2.95778e-13 1.97127e-13 -3.23603e-13 -4.27181e-13 3.17265e-13 -6.28565e-13 5.69663e-09 0.000938291
          0.000795752 0.000700386 4.48586e-05 1.64761e-06 4.03657e-08 7.15286e-10 9.45033e-12 8.93351e-13 4.95452e-13 -4.94784e-13 2.96559e-13 -9.87731e-13
          2.96136e-13 -9.86659e-14 3.94524e-13 0 -1.97171e-13 2.95713e-13 6.89922e-13 0 -9.85467e-14 -9.85425e-14 3.94158e-13 -5.91223e-13
          2.95607e-13 1.97069e-13 -2.95601e-13 -8.86797e-13 1.97065e-13 2.95597e-13 1.97064e-13 2.95596e-13 3.94127e-13 -2.95595e-13 -2.95595e-13 -9.85316e-14
          -2.95595e-13 -4.92658e-13 0 2.95595e-13 -9.85316e-14 4.92658e-13 -9.85316e-14 2.95595e-13 1.97079e-13 1.07836e-13 -7.47263e-13 1.90283e-12
          2.30381e-12 1.29752e-05 0.999074 0.999081 0.999087 0.0692022 0.00254914 6.26134e-05 1.10803e-06 1.45774e-08 1.4407e-10 9.90508e-13
          1.97834e-13 -2.9644e-13 5.92401e-13 -1.97345e-13 2.95879e-13 -2.95775e-13 -2.95696e-13 -9.85459e-14 -9.85315e-14 -3.94083e-13 2.95539e-13 1.97014e-13
          4.92515e-13 -1.97e-13 2.95493e-13 5.90977e-13 -5.9097e-13 1.96988e-13 5.90961e-13 -1.96986e-13 6.8945e-13 -1.96985e-13 -2.95477e-13 -1.96985e-13
          1.96985e-13 2.95477e-13 -1.96984e-13 9.84922e-14 -1.96984e-13 1.96984e-13 -3.93969e-13 -3.93969e-13 1.96984e-13 -2.95477e-13 -1.96983e-13 -2.9553e-13
        </DataArray>
        <DataArray type="Float32" Name="moleFrac_n^Air" NumberOfComponents="1" format="ascii">
          0.000961184 0.000951765 0.000960894 0.000951375 0.000942381 0.000942 0.000933421 0.000933043 0.000925048 0.000924673 0.000917391 0.00091702
          0.000910524 0.000910156 0.000904491 0.000904125 0.00089929 0.000898926 0.000894893 0.00089453 0.000891232 0.00089087 0.000888227 0.000887867
          0.000885794 0.000885435 0.000883847 0.000883489 0.000882308 0.00088195 0.000881102 0.000880745 0.000880167 0.00087981 0.000879447 0.000879091
          0.000878897 0.000878541 0.00087848 0.000878124 0.000878166 0.00087781 0.000877931 0.000877575 0.000877755 0.000877399 0.000877625 0.000877269
          0.000877529 0.000877173 0.000877458 0.000877102 0.000877406 0.00087705 0.000877368 0.000877013 0.000877341 0.000876985 0.000877321 0.000876965
          0.000877306 0.000876951 0.000877296 0.00087694 0.000877288 0.000876933 0.000877283 0.000876927 0.000877279 0.000876923 0.000877276 0.000876921
          0.000877274 0.000876919 0.000877273 0.000876917 0.000877272 0.000876916 0.000877271 0.000876916 0.000877271 0.000876915 0.00087727 0.000876915
          0.00087727 0.000876915 0.00087727 0.000876915 0.00087727 0.000876915 0.00087727 0.000876915 0.00087727 0.000876915 0.00087727 0.000876915
          0.00087727 0.000876915 0.000877276 0.000876916 0.000877111 0.000876847 0.000960648 0.000950988 0.000941618 0.000932665 0.000924298 0.00091665
          0.000909787 0.000903758 0.00089856 0.000894168 0.000890509 0.000887507 0.000885076 0.000883131 0.000881593 0.000880388 0.000879454 0.000878734
          0.000878185 0.000877768 0.000877455 0.000877219 0.000877044 0.000876914 0.000876818 0.000876747 0.000876695 0.000876657 0.00087663 0.00087661
          0.000876595 0.000876585 0.000876577 0.000876572 0.000876568 0.000876565 0.000876563 0.000876562 0.000876561 0.00087656 0.00087656 0.000876559
          0.000876559 0.000876559 0.000876559 0.000876559 0.000876559 0.000876559 0.000876559 0.000876559 0.000876628 0.000960366 0.000950597 0.000941237
          0.000932287 0.000923924 0.000915285 0.000908421 0.000902395 0.000898123 0.000893803 0.000890149 0.000887147 0.000884717 0.000882773 0.000881236
          0.000880031 0.000879097 0.000878378 0.000877829 0.000877413 0.000877099 0.000876864 0.000876688 0.000876558 0.000876462 0.000876392 0.00087634
          0.000876302 0.000876274 0.000876254 0.00087624 0.000876229 0.000876222 0.000876217 0.000876213 0.00087621 0.000876208 0.000876207 0.000876206
          0.000876205 0.000876204 0.000876204 0.000876204 0.000876204 0.000876204 0.000876204 0.000876204 0.000876204 0.000876205 0.000876199 0.000876366
        </DataArray>
        <DataArray type="Float32" Name="moleFrac_g^H2O" NumberOfComponents="1" format="ascii">
          0.0112147 0.0113244 0.011218 0.011329 0.0114359 0.0114405 0.0115444 0.011549 0.0116477 0.0116524 0.0117438 0.0117485
          0.0118313 0.011836 0.0119093 0.011914 0.0119773 0.0119821 0.0120355 0.0120403 0.0120843 0.0120891 0.0121247 0.0121295
          0.0121576 0.0121625 0.012184 0.0121889 0.012205 0.0122099 0.0122215 0.0122264 0.0122344 0.0122393 0.0122443 0.0122492
          0.0122518 0.0122567 0.0122576 0.0122625 0.0122619 0.0122668 0.0122651 0.0122701 0.0122676 0.0122725 0.0122694 0.0122743
          0.0122707 0.0122756 0.0122717 0.0122766 0.0122724 0.0122773 0.0122729 0.0122778 0.0122733 0.0122782 0.0122736 0.0122785
          0.0122738 0.0122787 0.0122739 0.0122788 0.012274 0.0122789 0.0122741 0.012279 0.0122741 0.0122791 0.0122742 0.0122791
          0.0122742 0.0122791 0.0122742 0.0122791 0.0122742 0.0122792 0.0122743 0.0122792 0.0122743 0.0122792 0.0122743 0.0122792
          0.0122743 0.0122792 0.0122743 0.0122792 0.0122743 0.0122792 0.0122743 0.0122792 0.0122743 0.0122792 0.0122743 0.0122792
          0.0122743 0.0122792 0.0122742 0.0122792 0.0122765 0.0122801 0.0112209 0.0113336 0.0114451 0.0115537 0.011657 0.0117531
          0.0118407 0.0119188 0.0119869 0.0120451 0.012094 0.0121344 0.0121673 0.0121938 0.0122148 0.0122313 0.0122442 0.0122541
          0.0122616 0.0122674 0.0122717 0.012275 0.0122774 0.0122792 0.0122805 0.0122815 0.0122822 0.0122827 0.0122831 0.0122834
          0.0122836 0.0122837 0.0122839 0.0122839 0.012284 0.012284 0.012284 0.0122841 0.0122841 0.0122841 0.0122841 0.0122841
          0.0122841 0.0122841 0.0122841 0.0122841 0.0122841 0.0122841 0.0122841 0.0122841 0.0122831 0.0112241 0.0113382 0.0114496
          0.0115583 0.0116617 0.0117577 0.0118454 0.0119235 0.0119918 0.0120499 0.0120988 0.0121393 0.0121722 0.0121987 0.0122197
          0.0122362 0.0122491 0.012259 0.0122665 0.0122723 0.0122766 0.0122799 0.0122823 0.0122841 0.0122854 0.0122864 0.0122871
          0.0122877 0.012288 0.0122883 0.0122885 0.0122887 0.0122888 0.0122888 0.0122889 0.0122889 0.012289 0.012289 0.012289
          0.012289 0.012289 0.012289 0.012289 0.012289 0.012289 0.012289 0.012289 0.012289 0.012289 0.0122891 0.0122868
        </DataArray>
        <DataArray type="Float32" Name="moleFrac_g^mesitylene" NumberOfComponents="1" format="ascii">
          -3.33079e-16 -1.44334e-15 -3.33079e-16 -4.44106e-16 -4.44106e-16 -4.44106e-16 -1.11026e-16 4.44106e-16 -1.11026e-16 1.44334e-15 9.59268e-14 3.65241e-10
          1.31344e-13 3.67167e-10 1.0492e-13 2.85991e-10 7.43877e-15 1.87821e-11 8.88211e-16 6.9658e-13 3.33079e-16 1.77642e-14 2.22053e-16 4.44106e-16
          -2.22053e-16 6.66159e-16 2.22053e-16 3.33079e-16 2.22053e-16 7.77185e-16 -7.77185e-16 3.33079e-16 -5.55132e-16 3.33079e-16 2.22053e-16 1.11026e-16
          3.33079e-16 0 5.55132e-16 3.33079e-16 3.33079e-16 -5.55132e-16 -3.33079e-16 2.22053e-16 2.22053e-16 3.33079e-16 3.33079e-16 1.11026e-16
          -2.22053e-16 -1.11026e-16 2.22053e-16 -8.88211e-16 3.33079e-16 -3.33079e-16 0 -3.33079e-16 3.33079e-16 -1.11026e-16 -3.33079e-16 0
          2.22053e-16 -2.22053e-16 -6.66159e-16 -1.11026e-16 2.22053e-16 -3.33079e-16 5.55132e-16 0 -3.33079e-16 2.22053e-16 1.11026e-16 3.33079e-16
          6.66159e-16 -2.22053e-16 2.22053e-16 -3.33079e-16 -2.22053e-16 0 4.44106e-16 3.33079e-16 7.77185e-16 3.33079e-16 -2.22053e-16 7.77185e-16
          -6.66159e-16 -6.66159e-16 -3.33079e-16 3.33079e-16 7.77185e-16 4.44106e-16 2.22053e-16 -1.11026e-16 2.22053e-16 7.77185e-16 -2.22053e-16 2.22053e-16
          3.33079e-16 -3.33079e-16 6.66159e-16 -6.66159e-16 -3.33079e-16 2.22053e-16 -3.33079e-16 -4.44106e-16 3.33079e-16 -6.66159e-16 6.09135e-12 1.01158e-06
          8.64299e-07 7.65733e-07 4.93244e-08 1.82043e-09 4.47805e-11 7.9617e-13 1.05475e-14 9.99238e-16 5.55132e-16 -5.55132e-16 3.33079e-16 -1.11026e-15
          3.33079e-16 -1.11026e-16 4.44106e-16 0 -2.22053e-16 3.33079e-16 7.77185e-16 0 -1.11026e-16 -1.11026e-16 4.44106e-16 -6.66159e-16
          3.33079e-16 2.22053e-16 -3.33079e-16 -9.99238e-16 2.22053e-16 3.33079e-16 2.22053e-16 3.33079e-16 4.44106e-16 -3.33079e-16 -3.33079e-16 -1.11026e-16
          -3.33079e-16 -5.55132e-16 0 3.33079e-16 -1.11026e-16 5.55132e-16 -1.11026e-16 3.33079e-16 2.22053e-16 1.11026e-16 -7.77185e-16 1.99848e-15
          2.44258e-15 1.38799e-08 0.00107753 0.00108558 0.00109274 7.61221e-05 2.81765e-06 6.94894e-08 1.23382e-09 1.62764e-11 1.6121e-13 1.11026e-15
          2.22053e-16 -3.33079e-16 6.66159e-16 -2.22053e-16 3.33079e-16 -3.33079e-16 -3.33079e-16 -1.11026e-16 -1.11026e-16 -4.44106e-16 3.33079e-16 2.22053e-16
          5.55132e-16 -2.22053e-16 3.33079e-16 6.66159e-16 -6.66159e-16 2.22053e-16 6.66159e-16 -2.22053e-16 7.77185e-16 -2.22053e-16 -3.33079e-16 -2.22053e-16
          2.22053e-16 3.33079e-16 -2.22053e-16 1.11026e-16 -2.22053e-16 2.22053e-16 -4.44106e-16 -4.44106e-16 2.22053e-16 -3.33079e-16 -2.22053e-16 -3.33079e-16
        </DataArray>
        <DataArray type="Float32" Name="moleFrac_g^Air" NumberOfComponents="1" format="ascii">
          0.988785 0.988676 0.988782 0.988671 0.988564 0.98856 0.988456 0.988451 0.988352 0.988348 0.988256 0.988252
          0.988169 0.988164 0.988091 0.988086 0.988023 0.988018 0.987965 0.98796 0.987916 0.987911 0.987875 0.98787
          0.987842 0.987838 0.987816 0.987811 0.987795 0.98779 0.987778 0.987774 0.987766 0.987761 0.987756 0.987751
          0.987748 0.987743 0.987742 0.987738 0.987738 0.987733 0.987735 0.98773 0.987732 0.987728 0.987731 0.987726
          0.987729 0.987724 0.987728 0.987723 0.987728 0.987723 0.987727 0.987722 0.987727 0.987722 0.987726 0.987722
          0.987726 0.987721 0.987726 0.987721 0.987726 0.987721 0.987726 0.987721 0.987726 0.987721 0.987726 0.987721
          0.987726 0.987721 0.987726 0.987721 0.987726 0.987721 0.987726 0.987721 0.987726 0.987721 0.987726 0.987721
          0.987726 0.987721 0.987726 0.987721 0.987726 0.987721 0.987726 0.987721 0.987726 0.987721 0.987726 0.987721
          0.987726 0.987721 0.987726 0.987721 0.987724 0.98772 0.988779 0.988666 0.988555 0.988446 0.988343 0.988246
          0.988158 0.98808 0.988013 0.987955 0.987906 0.987866 0.987833 0.987806 0.987785 0.987769 0.987756 0.987746
          0.987738 0.987733 0.987728 0.987725 0.987723 0.987721 0.987719 0.987719 0.987718 0.987717 0.987717 0.987717
          0.987716 0.987716 0.987716 0.987716 0.987716 0.987716 0.987716 0.987716 0.987716 0.987716 0.987716 0.987716
          0.987716 0.987716 0.987716 0.987716 0.987716 0.987716 0.987716 0.987716 0.987717 0.988776 0.988662 0.98855
          0.988442 0.988338 0.987165 0.987069 0.986984 0.987932 0.987947 0.987901 0.987861 0.987828 0.987801 0.98778
          0.987764 0.987751 0.987741 0.987733 0.987728 0.987723 0.98772 0.987718 0.987716 0.987715 0.987714 0.987713
          0.987712 0.987712 0.987712 0.987711 0.987711 0.987711 0.987711 0.987711 0.987711 0.987711 0.987711 0.987711
          0.987711 0.987711 0.987711 0.987711 0.987711 0.987711 0.987711 0.987711 0.987711 0.987711 0.987711 0.987713
        </DataArray>
      </PointData>
      <Points>
        <DataArray type="Float32" Name="Coordinates" NumberOfComponents="3" format="ascii">
          0 0 0 10 0 0 0 3.33333 0 10 3.33333 0
          20 0 0 20 3.33333 0 30 0 0 30 3.33333 0
          40 0 0 40 3.33333 0 50 0 0 50 3.33333 0
          60 0 0 60 3.33333 0 70 0 0 70 3.33333 0
          80 0 0 80 3.33333 0 90 0 0 90 3.33333 0
          100 0 0 100 3.33333 0 110 0 0 110 3.33333 0
          120 0 0 120 3.33333 0 130 0 0 130 3.33333 0
          140 0 0 140 3.33333 0 150 0 0 150 3.33333 0
          160 0 0 160 3.33333 0 170 0 0 170 3.33333 0
          180 0 0 180 3.33333 0 190 0 0 190 3.33333 0
          200 0 0 200 3.33333 0 210 0 0 210 3.33333 0
          220 0 0 220 3.33333 0 230 0 0 230 3.33333 0
          240 0 0 240 3.33333 0 250 0 0 250 3.33333 0
          260 0 0 260 3.33333 0 270 0 0 270 3.33333 0
          280 0 0 280 3.33333 0 290 0 0 290 3.33333 0
          300 0 0 300 3.33333 0 310 0 0 310 3.33333 0
          320 0 0 320 3.33333 0 330 0 0 330 3.33333 0
          340 0 0 340 3.33333 0 350 0 0 350 3.33333 0
          360 0 0 360 3.33333 0 370 0 0 370 3.33333 0
          380 0 0 380 3.33333 0 390 0 0 390 3.33333 0
          400 0 0 400 3.33333 0 410 0 0 410 3.33333 0
          420 0 0 420 3.33333 0 430 0 0 430 3.33333 0
          440 0 0 440 3.33333 0 450 0 0 450 3.33333 0
          460 0 0 460 3.33333 0 470 0 0 470 3.33333 0
          480 0 0 480 3.33333 0 490 0 0 490 3.33333 0
          500 0 0 500 3.33333 0 0 6.66667 0 10 6.66667 0
          20 6.66667 0 30 6.66667 0 40 6.66667 0 50 6.66667 0
          60 6.66667 0 70 6.66667 0 80 6.66667 0 90 6.66667 0
          100 6.66667 0 110 6.66667 0 120 6.66667 0 130 6.66667 0
          140 6.66667 0 150 6.66667 0 160 6.66667 0 170 6.66667 0
          180 6.66667 0 190 6.66667 0 200 6.66667 0 210 6.66667 0
          220 6.66667 0 230 6.66667 0 240 6.66667 0 250 6.66667 0
          260 6.66667 0 270 6.66667 0 280 6.66667 0 290 6.66667 0
          300 6.66667 0 310 6.66667 0 320 6.66667 0 330 6.66667 0
          340 6.66667 0 350 6.66667 0 360 6.66667 0 370 6.66667 0
          380 6.66667 0 390 6.66667 0 400 6.66667 0 410 6.66667 0
          420 6.66667 0 430 6.66667 0 440 6.66667 0 450 6.66667 0
          460 6.66667 0 470 6.66667 0 480 6.66667 0 490 6.66667 0
          500 6.66667 0 0 10 0 10 10 0 20 10 0
          30 10 0 40 10 0 50 10 0 60 10 0
          70 10 0 80 10 0 90 10 0 100 10 0
          110 10 0 120 10 0 130 10 0 140 10 0
          150 10 0 160 10 0 170 10 0 180 10 0
          190 10 0 200 10 0 210 10 0 220 10 0
          230 10 0 240 10 0 250 10 0 260 10 0
          270 10 0 280 10 0 290 10 0 300 10 0
          310 10 0 320 10 0 330 10 0 340 10 0
          350 10 0 360 10 0 370 10 0 380 10 0
          390 10 0 400 10 0 410 10 0 420 10 0
          430 10 0 440 10 0 450 10 0 460 10 0
          470 10 0 480 10 0 490 10 0 500 10 0
        </DataArray>
      </Points>
      <Cells>
        <DataArray type="Int32" Name="connectivity" NumberOfComponents="1" format="ascii">
          0 1 3 2 1 4 5 3 4 6 7 5
          6 8 9 7 8 10 11 9 10 12 13 11
          12 14 15 13 14 16 17 15 16 18 19 17
          18 20 21 19 20 22 23 21 22 24 25 23
          24 26 27 25 26 28 29 27 28 30 31 29
          30 32 33 31 32 34 35 33 34 36 37 35
          36 38 39 37 38 40 41 39 40 42 43 41
          42 44 45 43 44 46 47 45 46 48 49 47
          48 50 51 49 50 52 53 51 52 54 55 53
          54 56 57 55 56 58 59 57 58 60 61 59
          60 62 63 61 62 64 65 63 64 66 67 65
          66 68 69 67 68 70 71 69 70 72 73 71
          72 74 75 73 74 76 77 75 76 78 79 77
          78 80 81 79 80 82 83 81 82 84 85 83
          84 86 87 85 86 88 89 87 88 90 91 89
          90 92 93 91 92 94 95 93 94 96 97 95
          96 98 99 97 98 100 101 99 2 3 103 102
          3 5 104 103 5 7 105 104 7 9 106 105
          9 11 107 106 11 13 108 107 13 15 109 108
          15 17 110 109 17 19 111 110 19 21 112 111
          21 23 113 112 23 25 114 113 25 27 115 114
          27 29 116 115 29 31 117 116 31 33 118 117
          33 35 119 118 35 37 120 119 37 39 121 120
          39 41 122 121 41 43 123 122 43 45 124 123
          45 47 125 124 47 49 126 125 49 51 127 126
          51 53 128 127 53 55 129 128 55 57 130 129
          57 59 131 130 59 61 132 131 61 63 133 132
          63 65 134 133 65 67 135 134 67 69 136 135
          69 71 137 136 71 73 138 137 73 75 139 138
          75 77 140 139 77 79 141 140 79 81 142 141
          81 83 143 142 83 85 144 143 85 87 145 144
          87 89 146 145 89 91 147 146 91 93 148 147
          93 95 149 148 95 97 150 149 97 99 151 150
          99 101 152 151 102 103 154 153 103 104 155 154
          104 105 156 155 105 106 157 156 106 107 158 157
          107 108 159 158 108 109 160 159 109 110 161 160
          110 111 162 161 111 112 163 162 112 113 164 163
          113 114 165 164 114 115 166 165 115 116 167 166
          116 117 168 167 117 118 169 168 118 119 170 169
          119 120 171 170 120 121 172 171 121 122 173 172
          122 123 174 173 123 124 175 174 124 125 176 175
          125 126 177 176 126 127 178 177 127 128 179 178
          128 129 180 179 129 130 181 180 130 131 182 181
          131 132 183 182 132 133 184 183 133 134 185 184
          134 135 186 185 135 136 187 186 136 137 188 187
          137 138 189 188 138 139 190 189 139 140 191 190
          140 141 192 191 141 142 193 192 142 143 194 193
          143 144 195 194 144 145 196 195 145 146 197 196
          146 147 198 197 147 148 199 198 148 149 200 199
          149 150 201 200 150 151 202 201 151 152 203 202
        </DataArray>
        <DataArray type="Int32" Name="offsets" NumberOfComponents="1" format="ascii">
          4 8 12 16 20 24 28 32 36 40 44 48
          52 56 60 64 68 72 76 80 84 88 92 96
          100 104 108 112 116 120 124 128 132 136 140 144
          148 152 156 160 164 168 172 176 180 184 188 192
          196 200 204 208 212 216 220 224 228 232 236 240
          244 248 252 256 260 264 268 272 276 280 284 288
          292 296 300 304 308 312 316 320 324 328 332 336
          340 344 348 352 356 360 364 368 372 376 380 384
          388 392 396 400 404 408 412 416 420 424 428 432
          436 440 444 448 452 456 460 464 468 472 476 480
          484 488 492 496 500 504 508 512 516 520 524 528
          532 536 540 544 548 552 556 560 564 568 572 576
          580 584 588 592 596 600
        </DataArray>
        <DataArray type="UInt8" Name="types" NumberOfComponents="1" format="ascii">
          9 9 9 9 9 9 9 9 9 9 9 9
          9 9 9 9 9 9 9 9 9 9 9 9
          9 9 9 9 9 9 9 9 9 9 9 9
          9 9 9 9 9 9 9 9 9 9 9 9
          9 9 9 9 9 9 9 9 9 9 9 9
          9 9 9 9 9 9 9 9 9 9 9 9
          9 9 9 9 9 9 9 9 9 9 9 9
          9 9 9 9 9 9 9 9 9 9 9 9
          9 9 9 9 9 9 9 9 9 9 9 9
          9 9 9 9 9 9 9 9 9 9 9 9
          9 9 9 9 9 9 9 9 9 9 9 9
          9 9 9 9 9 9 9 9 9 9 9 9
          9 9 9 9 9 9