<?xml version="1.0"?>
<VTKFile type="UnstructuredGrid" version="0.1" byte_order="LittleEndian">
  <UnstructuredGrid>
    <Piece NumberOfCells="150" NumberOfPoints="204">
      <PointData Scalars="pressure_w">
        <DataArray type="Float32" Name="pressure_w" NumberOfComponents="1" format="ascii">
          96589 95527.5 96556.3 95483.5 94469.8 94426.8 93459.9 93417.3 92516.3 92474.1 91653.5 91611.8
          90880 90838.5 90200.4 90159.1 89614.7 89573.6 89119.5 89078.7 88707.4 88666.7 88369.2 88328.6
          88095.4 88054.9 87876.4 87836 87703.2 87662.9 87567.5 87527.3 87462.3 87422.1 87381.3 87341.1
          87319.4 87279.3 87272.5 87232.4 87237.1 87197 87210.5 87170.4 87190.7 87150.6 87176 87135.9
          87165.1 87125 87157.1 87117 87151.2 87111.1 87146.9 87106.8 87143.8 87103.7 87141.5 87101.4
          87139.8 87099.8 87138.6 87098.6 87137.8 87097.7 87137.1 87097.1 87136.7 87096.6 87136.4 87096.3
          87136.1 87096.1 87136 87095.9 87135.9 87095.8 87135.8 87095.7 87135.7 87095.7 87135.7 87095.6
          87135.7 87095.6 87135.6 87095.6 87135.6 87095.6 87135.6 87095.6 87135.7 87095.6 87135.7 87095.6
          87135.7 87095.6 87136.3 87095.8 87117.7 87087.9 96528.6 95439.9 94383.8 93374.7 92431.9 91570.2
          90797 90117.9 89532.4 89037.8 88626 88288.1 88014.5 87795.7 87622.6 87487.1 87381.9 87301
          87239.2 87192.3 87156.9 87130.3 87110.5 87095.8 87085 87077 87071.1 87066.8 87063.6 87061.4
          87059.7 87058.5 87057.7 87057 87056.6 87056.3 87056 87055.9 87055.8 87055.7 87055.6 87055.6
          87055.6 87055.6 87055.6 87055.6 87055.6 87055.6 87055.6 87055.5 87063.4 96496.8 95395.9 94340.9
          93332.2 92389.7 91529 90536 89857.3 89491 88997 88585.4 88247.6 87974.1 87755.4 87582.4
          87446.9 87341.8 87260.9 87199.1 87152.2 87116.8 87090.3 87070.5 87055.8 87044.9 87036.9 87031.1
          87026.8 87023.6 87021.3 87019.7 87018.5 87017.6 87017 87016.6 87016.2 87016 87015.9 87015.7
          87015.7 87015.6 87015.6 87015.5 87015.5 87015.5 87015.5 87015.5 87015.6 87015.6 87015 87033.7
        </DataArray>
        <DataArray type="Float32" Name="pressure_n" NumberOfComponents="1" format="ascii">
          96589 95527.5 96556.3 95483.5 94469.8 94426.8 93459.9 93417.3 92516.3 92474.1 91653.5 91611.8
          90880 90838.5 90200.4 90159.1 89614.7 89573.6 89119.5 89078.7 88707.4 88666.7 88369.2 88328.6
          88095.4 88054.9 87876.4 87836 87703.2 87662.9 87567.5 87527.3 87462.3 87422.1 87381.3 87341.1
          87319.4 87279.3 87272.5 87232.4 87237.1 87197 87210.5 87170.4 87190.7 87150.6 87176 87135.9
          87165.1 87125 87157.1 87117 87151.2 87111.1 87146.9 87106.8 87143.8 87103.7 87141.5 87101.4
          87139.8 87099.8 87138.6 87098.6 87137.8 87097.7 87137.1 87097.1 87136.7 87096.6 87136.4 87096.3
          87136.1 87096.1 87136 87095.9 87135.9 87095.8 87135.8 87095.7 87135.7 87095.7 87135.7 87095.6
          87135.7 87095.6 87135.6 87095.6 87135.6 87095.6 87135.6 87095.6 87135.7 87095.6 87135.7 87095.6
          87135.7 87095.6 87136.3 87095.8 87117.7 87087.9 96528.6 95439.9 94383.8 93374.7 92431.9 91570.2
          90797 90117.9 89532.4 89037.8 88626 88288.1 88014.5 87795.7 87622.6 87487.1 87381.9 87301
          87239.2 87192.3 87156.9 87130.3 87110.5 87095.8 87085 87077 87071.1 87066.8 87063.6 87061.4
          87059.7 87058.5 87057.7 87057 87056.6 87056.3 87056 87055.9 87055.8 87055.7 87055.6 87055.6
          87055.6 87055.6 87055.6 87055.6 87055.6 87055.6 87055.6 87055.5 87063.4 96496.8 95395.9 94340.9
          93332.2 92389.7 91529 90764.5 90085.8 89491 88997 88585.4 88247.6 87974.1 87755.4 87582.4
          87446.9 87341.8 87260.9 87199.1 87152.2 87116.8 87090.3 87070.5 87055.8 87044.9 87036.9 87031.1
          87026.8 87023.6 87021.3 87019.7 87018.5 87017.6 87017 87016.6 87016.2 87016 87015.9 87015.7
          87015.7 87015.6 87015.6 87015.5 87015.5 87015.5 87015.5 87015.5 87015.6 87015.6 87015 87033.7
        </DataArray>
        <DataArray type="Float32" Name="pressure_g" NumberOfComponents="1" format="ascii">
          109514 108452 109481 108408 107394 107351 106384 106342 105441 105399 104578 104536
          103804 103763 103125 103084 102539 102498 102044 102003 101632 101591 101294 101253
          101020 100979 100801 100761 100628 100587 100492 100452 100387 100347 100306 100266
          100244 100204 100197 100157 100162 100121 100135 100095 100115 100075 100100 100060
          100090 100050 100082 100042 100076 100036 100071 100031 100068 100028 100066 100026
          100064 100024 100063 100023 100062 100022 100062 100022 100061 100021 100061 100021
          100061 100021 100060 100020 100060 100020 100060 100020 100060 100020 100060 100020
          100060 100020 100060 100020 100060 100020 100060 100020 100060 100020 100060 100020
          100060 100020 100061 100020 100042 100012 109453 108364 107308 106299 105356 104495
          103722 103042 102457 101962 101551 101213 100939 100720 100547 100412 100306 100226
          100164 100117 100081 100055 100035 100020 100010 100001 99995.6 99991.3 99988.2 99985.9
          99984.2 99983 99982.2 99981.6 99981.1 99980.8 99980.6 99980.4 99980.3 99980.2 99980.1 99980.1
          99980.1 99980.1 99980.1 99980.1 99980.1 99980.1 99980.1 99980 99987.9 109421 108320 107265
          106257 105314 104453 103680 103001 102415 101922 101510 101172 100899 100680 100507
          100371 100266 100185 100124 100077 100041 100015 99995 99980.3 99969.5 99961.5 99955.6
          99951.3 99948.2 99945.9 99944.2 99943 99942.2 99941.5 99941.1 99940.8 99940.5 99940.4 99940.3
          99940.2 99940.1 99940.1 99940.1 99940.1 99940.1 99940.1 99940.1 99940.1 99940.1 99939.5 99958.3
        </DataArray>
        <DataArray type="Float32" Name="density_w" NumberOfComponents="1" format="ascii">
          999.709 999.709 999.709 999.709 999.708 999.708 999.708 999.708 999.707 999.707 999.707 999.707
          999.706 999.706 999.706 999.706 999.706 999.705 999.705 999.705 999.705 999.705 999.705 999.705
          999.705 999.705 999.705 999.704 999.704 999.704 999.704 999.704 999.704 999.704 999.704 999.704
          999.704 999.704 999.704 999.704 999.704 999.704 999.704 999.704 999.704 999.704 999.704 999.704
          999.704 999.704 999.704 999.704 999.704 999.704 999.704 999.704 999.704 999.704 999.704 999.704
          999.704 999.704 999.704 999.704 999.704 999.704 999.704 999.704 999.704 999.704 999.704 999.704
          999.704 999.704 999.704 999.704 999.704 999.704 999.704 999.704 999.704 999.704 999.704 999.704
          999.704 999.704 999.704 999.704 999.704 999.704 999.704 999.704 999.704 999.704 999.704 999.704
          999.704 999.704 999.704 999.704 999.704 999.704 999.709 999.709 999.708 999.708 999.707 999.707
          999.706 999.706 999.705 999.705 999.705 999.705 999.705 999.704 999.704 999.704 999.704 999.704
          999.704 999.704 999.704 999.704 999.704 999.704 999.704 999.704 999.704 999.704 999.704 999.704
          999.704 999.704 999.704 999.704 999.704 999.704 999.704 999.704 999.704 999.704 999.704 999.704
          999.704 999.704 999.704 999.704 999.704 999.704 999.704 999.704 999.704 999.709 999.709 999.708
          999.708 999.707 999.726 999.725 999.725 999.707 999.705 999.705 999.705 999.705 999.704 999.704
          999.704 999.704 999.704 999.704 999.704 999.704 999.704 999.704 999.704 999.704 999.704 999.704
          999.704 999.704 999.704 999.704 999.704 999.704 999.704 999.704 999.704 999.704 999.704 999.704
          999.704 999.704 999.704 999.704 999.704 999.704 999.704 999.704 999.704 999.704 999.704 999.704
        </DataArray>
        <DataArray type="Float32" Name="density_n" NumberOfComponents="1" format="ascii">
          878.771 878.771 878.771 878.771 878.771 878.771 878.771 878.771 878.771 878.771 878.771 878.771
          878.771 878.771 878.771 878.771 878.771 878.771 878.771 878.771 878.771 878.771 878.771 878.771
          878.771 878.771 878.771 878.771 878.771 878.771 878.771 878.771 878.771 878.771 878.771 878.771
          878.771 878.771 878.771 878.771 878.771 878.771 878.771 878.771 878.771 878.771 878.771 878.771
          878.771 878.771 878.771 878.771 878.771 878.771 878.771 878.771 878.771 878.771 878.771 878.771
          878.771 878.771 878.771 878.771 878.771 878.771 878.771 878.771 878.771 878.771 878.771 878.771
          878.771 878.771 878.771 878.771 878.771 878.771 878.771 878.771 878.771 878.771 878.771 878.771
          878.771 878.771 878.771 878.771 878.771 878.771 878.771 878.771 878.771 878.771 878.771 878.771
          878.771 878.771 878.771 878.771 878.771 878.771 878.771 878.771 878.771 878.771 878.771 878.771
          878.771 878.771 878.771 878.771 878.771 878.771 878.771 878.771 878.771 878.771 878.771 878.771
          878.771 878.771 878.771 878.771 878.771 878.771 878.771 878.771 878.771 878.771 878.771 878.771
          878.771 878.771 878.771 878.771 878.771 878.771 878.771 878.771 878.771 878.771 878.771 878.771
          878.771 878.771 878.771 878.771 878.771 878.771 878.771 878.771 878.771 878.771 878.771 878.771
          878.771 878.771 878.771 878.771 878.771 878.771 878.771 878.771 878.771 878.771 878.771 878.771
          878.771 878.771 878.771 878.771 878.771 878.771 878.771 878.771 878.771 878.771 878.771 878.771
          878.771 878.771 878.771 878.771 878.771 878.771 878.771 878.771 878.771 878.771 878.771 878.771
          878.771 878.771 878.771 878.771 878.771 878.771 878.771 878.771 878.771 878.771 878.771 878.771
        </DataArray>
        <DataArray type="Float32" Name="density_g" NumberOfComponents="1" format="ascii">
          1.34145 1.32839 1.34104 1.32785 1.31538 1.31485 1.30295 1.30243 1.29135 1.29083 1.28073 1.28022
          1.27122 1.27071 1.26286 1.26235 1.25565 1.25515 1.24956 1.24906 1.24449 1.24399 1.24033 1.23983
          1.23696 1.23647 1.23427 1.23377 1.23214 1.23164 1.23047 1.22998 1.22918 1.22868 1.22818 1.22769
          1.22742 1.22693 1.22684 1.22635 1.22641 1.22591 1.22608 1.22559 1.22584 1.22534 1.22565 1.22516
          1.22552 1.22503 1.22542 1.22493 1.22535 1.22486 1.2253 1.2248 1.22526 1.22477 1.22523 1.22474
          1.22521 1.22472 1.22519 1.2247 1.22518 1.22469 1.22518 1.22468 1.22517 1.22468 1.22517 1.22467
          1.22516 1.22467 1.22516 1.22467 1.22516 1.22467 1.22516 1.22467 1.22516 1.22467 1.22516 1.22467
          1.22516 1.22467 1.22516 1.22467 1.22516 1.22467 1.22516 1.22467 1.22516 1.22467 1.22516 1.22467
          1.22516 1.22467 1.22517 1.22467 1.22494 1.22457 1.3407 1.32731 1.31432 1.30191 1.29031 1.27971
          1.2702 1.26185 1.25464 1.24856 1.24349 1.23933 1.23597 1.23328 1.23115 1.22948 1.22819 1.22719
          1.22643 1.22585 1.22542 1.22509 1.22485 1.22467 1.22453 1.22444 1.22436 1.22431 1.22427 1.22424
          1.22422 1.22421 1.2242 1.22419 1.22419 1.22418 1.22418 1.22418 1.22418 1.22417 1.22417 1.22417
          1.22417 1.22417 1.22417 1.22417 1.22417 1.22417 1.22417 1.22417 1.22427 1.34031 1.32677 1.31379
          1.30138 1.28979 1.28355 1.27404 1.26569 1.25443 1.24807 1.24299 1.23884 1.23547 1.23278 1.23065
          1.22899 1.22769 1.2267 1.22594 1.22536 1.22493 1.2246 1.22436 1.22418 1.22404 1.22394 1.22387
          1.22382 1.22378 1.22375 1.22373 1.22372 1.22371 1.2237 1.22369 1.22369 1.22369 1.22368 1.22368
          1.22368 1.22368 1.22368 1.22368 1.22368 1.22368 1.22368 1.22368 1.22368 1.22368 1.22367 1.2239
        </DataArray>
        <DataArray type="Float32" Name="saturation_w" NumberOfComponents="1" format="ascii">
          0.119993 0.12 0.119992 0.12 0.12 0.12 0.12 0.12 0.12 0.12 0.12 0.12
          0.12 0.12 0.12 0.12 0.12 0.12 0.12 0.12 0.12 0.12 0.12 0.12
          0.12 0.12 0.12 0.12 0.12 0.12 0.12 0.12 0.12 0.12 0.12 0.12
          0.12 0.12 0.12 0.12 0.12 0.12 0.12 0.12 0.12 0.12 0.12 0.12
          0.12 0.12 0.12 0.12 0.12 0.12 0.12 0.12 0.12 0.12 0.12 0.12
          0.12 0.12 0.12 0.12 0.12 0.12 0.12 0.12 0.12 0.12 0.12 0.12
          0.12 0.12 0.12 0.12 0.12 0.12 0.12 0.12 0.12 0.12 0.12 0.12
          0.12 0.12 0.12 0.12 0.12 0.12 0.12 0.12 0.12 0.12 0.12 0.12
          0.12 0.12 0.12 0.12 0.12 0.12 0.119992 0.12 0.12 0.12 0.12 0.12
          0.12 0.12 0.12 0.12 0.12 0.12 0.12 0.12 0.12 0.12 0.12 0.12
          0.12 0.12 0.12 0.12 0.12 0.12 0.12 0.12 0.12 0.12 0.12 0.12
          0.12 0.12 0.12 0.12 0.12 0.12 0.12 0.12 0.12 0.12 0.12 0.12
          0.12 0.12 0.12 0.12 0.12 0.12 0.12 0.12 0.12 0.119992 0.12 0.12
          0.12 0.12 0.120001 0.120001 0.120001 0.12 0.12 0.12 0.12 0.12 0.12 0.12
          0.12 0.12 0.12 0.12 0.12 0.12 0.12 0.12 0.12 0.12 0.12 0.12
          0.12 0.12 0.12 0.12 0.12 0.12 0.12 0.12 0.12 0.12 0.12 0.12
          0.12 0.12 0.12 0.12 0.12 0.12 0.12 0.12 0.12 0.12 0.12 0.12
        </DataArray>
        <DataArray type="Float32" Name="saturation_n" NumberOfComponents="1" format="ascii">
          0 0 0 0 0 0 0 0 0 0 0 0
          0 0 0 0 0 0 0 0 0 0 0 0
          0 0 0 0 0 0 0 0 0 0 0 0
          0 0 0 0 0 0 0 0 0 0 0 0
          0 0 0 0 0 0 0 0 0 0 0 0
          0 0 0 0 0 0 0 0 0 0 0 0
          0 0 0 0 0 0 0 0 0 0 0 0
          0 0 0 0 0 0 0 0 0 0 0 0
          0 0 0 0 0 0 0 0 0 0 0 0
          0 0 0 0 0 0 0 0 0 0 0 0
          0 0 0 0 0 0 0 0 0 0 0 0
          0 0 0 0 0 0 0 0 0 0 0 0
          0 0 0 0 0 0 0 0 0 0 0 0
          0 0 0.000604771 0.00122062 0.00122058 0 0 0 0 0 0 0
          0 0 0 0 0 0 0 0 0 0 0 0
          0 0 0 0 0 0 0 0 0 0 0 0
          0 0 0 0 0 0 0 0 0 0 0 0
        </DataArray>
        <DataArray type="Float32" Name="saturation_g" NumberOfComponents="1" format="ascii">
          0.880007 0.88 0.880008 0.88 0.88 0.88 0.88 0.88 0.88 0.88 0.88 0.88
          0.88 0.88 0.88 0.88 0.88 0.88 0.88 0.88 0.88 0.88 0.88 0.88
          0.88 0.88 0.88 0.88 0.88 0.88 0.88 0.88 0.88 0.88 0.88 0.88
          0.88 0.88 0.88 0.88 0.88 0.88 0.88 0.88 0.88 0.88 0.88 0.88
          0.88 0.88 0.88 0.88 0.88 0.88 0.88 0.88 0.88 0.88 0.88 0.88
          0.88 0.88 0.88 0.88 0.88 0.88 0.88 0.88 0.88 0.88 0.88 0.88
          0.88 0.88 0.88 0.88 0.88 0.88 0.88 0.88 0.88 0.88 0.88 0.88
          0.88 0.88 0.88 0.88 0.88 0.88 0.88 0.88 0.88 0.88 0.88 0.88
          0.88 0.88 0.88 0.88 0.88 0.88 0.880008 0.88 0.88 0.88 0.88 0.88
          0.88 0.88 0.88 0.88 0.88 0.88 0.88 0.88 0.88 0.88 0.88 0.88
          0.88 0.88 0.88 0.88 0.88 0.88 0.88 0.88 0.88 0.88 0.88 0.88
          0.88 0.88 0.88 0.88 0.88 0.88 0.88 0.88 0.88 0.88 0.88 0.88
          0.88 0.88 0.88 0.88 0.88 0.88 0.88 0.88 0.88 0.880008 0.88 0.88
          0.88 0.88 0.879395 0.878779 0.878779 0.88 0.88 0.88 0.88 0.88 0.88 0.88
          0.88 0.88 0.88 0.88 0.88 0.88 0.88 0.88 0.88 0.88 0.88 0.88
          0.88 0.88 0.88 0.88 0.88 0.88 0.88 0.88 0.88 0.88 0.88 0.88
          0.88 0.88 0.88 0.88 0.88 0.88 0.88 0.88 0.88 0.88 0.88 0.88
        </DataArray>
        <DataArray type="Float32" Name="relativePerm_w" NumberOfComponents="1" format="ascii">
          0 1.2771e-21 0 1.24204e-21 1.15036e-21 1.12762e-21 8.5324e-22 8.34005e-22 5.78608e-22 5.63732e-22 3.67475e-22 3.56527e-22
          2.2053e-22 2.12731e-22 1.25979e-22 1.20639e-22 6.88669e-23 6.53163e-23 3.62456e-23 3.39601e-23 1.84396e-23 1.70024e-23 9.11323e-24 8.2292e-24
          4.40016e-24 3.8665e-24 2.08838e-24 1.771e-24 9.8099e-25 7.94289e-25 4.59599e-25 3.50471e-25 2.16631e-25 1.52928e-25 1.0373e-25 6.63768e-26
          5.09973e-26 2.885e-26 2.60291e-26 1.26541e-26 1.39441e-26 5.65156e-27 7.9168e-27 2.59619e-27 4.79834e-27 1.24037e-27 3.11694e-27 6.23281e-28
          2.17037e-27 3.32949e-28 1.6142e-27 1.90689e-28 1.27416e-27 1.17701e-28 1.05896e-27 7.83844e-29 9.18647e-28 5.61728e-29 8.24984e-28 4.30277e-29
          7.6126e-28 3.49264e-29 7.17279e-28 2.97604e-29 6.86619e-28 2.63747e-29 6.65142e-28 2.41082e-29 6.49974e-28 2.25642e-29 6.39233e-28 2.14962e-29
          6.31692e-28 2.0763e-29 6.26325e-28 2.02473e-29 6.22593e-28 1.98917e-29 6.19999e-28 1.96458e-29 6.18199e-28 1.94805e-29 6.17073e-28 1.93748e-29
          6.16389e-28 1.93037e-29 6.16005e-28 1.92764e-29 6.15951e-28 1.92642e-29 6.16053e-28 1.9277e-29 6.16343e-28 1.93036e-29 6.16926e-28 1.93361e-29
          6.1639e-28 1.94016e-29 6.51934e-28 2.07773e-29 2.27691e-28 5.66904e-30 0 1.20311e-21 1.10493e-21 8.1516e-22 5.49127e-22 3.48318e-22
          2.06545e-22 1.16311e-22 6.191e-23 3.17766e-23 1.5643e-23 7.40518e-24 3.37858e-24 1.48812e-24 6.33378e-25 2.60489e-25 1.03372e-25 3.94497e-26
          1.43878e-26 4.96101e-27 1.58787e-27 4.56663e-28 1.10962e-28 1.99052e-29 1.78351e-30 5.16972e-33 0 0 0 0
          0 0 0 0 0 0 0 0 0 0 0 0
          0 0 0 0 0 0 0 0 0 0 1.16747e-21 1.08292e-21
          7.96478e-22 5.34748e-22 1.42027e-20 1.3254e-20 1.14704e-20 1.29056e-22 3.09282e-23 1.43763e-23 6.63884e-24 2.93408e-24 1.23757e-24 4.96198e-25
          1.87686e-25 6.60767e-26 2.11433e-26 5.88477e-27 1.30282e-27 1.8397e-28 7.06337e-30 0 0 0 0 0
          0 0 0 0 0 0 0 0 0 0 0 0
          0 0 0 0 0 0 0 0 0 0 0 0
        </DataArray>
        <DataArray type="Float32" Name="relativePerm_n" NumberOfComponents="1" format="ascii">
          0 0 0 0 0 0 0 0 0 0 0 0
          0 0 0 0 0 0 0 0 0 0 0 0
          0 0 0 0 0 0 0 0 0 0 0 0
          0 0 0 0 0 0 0 0 0 0 0 0
          0 0 0 0 0 0 0 0 0 0 0 0
          0 0 0 0 0 0 0 0 0 0 0 0
          0 0 0 0 0 0 0 0 0 0 0 0
          0 0 0 0 0 0 0 0 0 0 0 0
          0 0 0 0 0 0 0 0 0 0 0 0
          0 0 0 0 0 0 0 0 0 0 0 0
          0 0 0 0 0 0 0 0 0 0 0 0
          0 0 0 0 0 0 0 0 0 0 0 0
          0 0 0 0 0 0 0 0 0 0 0 0
          0 0 5.43646e-11 5.01893e-10 5.01819e-10 0 0 0 0 0 0 0
          0 0 0 0 0 0 0 0 0 0 0 0
          0 0 0 0 0 0 0 0 0 0 0 0
          0 0 0 0 0 0 0 0 0 0 0 0
        </DataArray>
        <DataArray type="Float32" Name="relativePerm_g" NumberOfComponents="1" format="ascii">
          0.907723 0.907713 0.907723 0.907713 0.907713 0.907713 0.907714 0.907714 0.907714 0.907714 0.907714 0.907714
          0.907714 0.907714 0.907714 0.907714 0.907714 0.907714 0.907714 0.907714 0.907714 0.907714 0.907714 0.907714
          0.907714 0.907714 0.907714 0.907714 0.907714 0.907714 0.907714 0.907714 0.907714 0.907714 0.907714 0.907714
          0.907714 0.907714 0.907714 0.907714 0.907714 0.907714 0.907714 0.907714 0.907714 0.907714 0.907714 0.907714
          0.907714 0.907714 0.907714 0.907714 0.907714 0.907714 0.907714 0.907714 0.907714 0.907714 0.907714 0.907714
          0.907714 0.907714 0.907714 0.907714 0.907714 0.907714 0.907714 0.907714 0.907714 0.907714 0.907714 0.907714
          0.907714 0.907714 0.907714 0.907714 0.907714 0.907714 0.907714 0.907714 0.907714 0.907714 0.907714 0.907714
          0.907714 0.907714 0.907714 0.907714 0.907714 0.907714 0.907714 0.907714 0.907714 0.907714 0.907714 0.907714
          0.907714 0.907714 0.907714 0.907714 0.907714 0.907714 0.907723 0.907713 0.907713 0.907714 0.907714 0.907714
          0.907714 0.907714 0.907714 0.907714 0.907714 0.907714 0.907714 0.907714 0.907714 0.907714 0.907714 0.907714
          0.907714 0.907714 0.907714 0.907714 0.907714 0.907714 0.907714 0.907714 0.907714 0.907714 0.907714 0.907714
          0.907714 0.907714 0.907714 0.907714 0.907714 0.907714 0.907714 0.907714 0.907714 0.907714 0.907714 0.907714
          0.907714 0.907714 0.907714 0.907714 0.907714 0.907714 0.907714 0.907714 0.907714 0.907724 0.907713 0.907714
          0.907714 0.907714 0.90697 0.906212 0.906212 0.907714 0.907714 0.907714 0.907714 0.907714 0.907714 0.907714
          0.907714 0.907714 0.907714 0.907714 0.907714 0.907714 0.907714 0.907714 0.907714 0.907714 0.907714 0.907714
          0.907714 0.907714 0.907714 0.907714 0.907714 0.907714 0.907714 0.907714 0.907714 0.907714 0.907714 0.907714
          0.907714 0.907714 0.907714 0.907714 0.907714 0.907714 0.907714 0.907714 0.907714 0.907714 0.907714 0.907714
        </DataArray>
        <DataArray type="Float32" Name="porosity" NumberOfComponents="1" format="ascii">
          0.4 0.4 0.4 0.4 0.4 0.4 0.4 0.4 0.4 0.4 0.4 0.4
          0.4 0.4 0.4 0.4 0.4 0.4 0.4 0.4 0.4 0.4 0.4 0.4
          0.4 0.4 0.4 0.4 0.4 0.4 0.4 0.4 0.4 0.4 0.4 0.4
          0.4 0.4 0.4 0.4 0.4 0.4 0.4 0.4 0.4 0.4 0.4 0.4
          0.4 0.4 0.4 0.4 0.4 0.4 0.4 0.4 0.4 0.4 0.4 0.4
          0.4 0.4 0.4 0.4 0.4 0.4 0.4 0.4 0.4 0.4 0.4 0.4
          0.4 0.4 0.4 0.4 0.4 0.4 0.4 0.4 0.4 0.4 0.4 0.4
          0.4 0.4 0.4 0.4 0.4 0.4 0.4 0.4 0.4 0.4 0.4 0.4
          0.4 0.4 0.4 0.4 0.4 0.4 0.4 0.4 0.4 0.4 0.4 0.4
          0.4 0.4 0.4 0.4 0.4 0.4 0.4 0.4 0.4 0.4 0.4 0.4
          0.4 0.4 0.4 0.4 0.4 0.4 0.4 0.4 0.4 0.4 0.4 0.4
          0.4 0.4 0.4 0.4 0.4 0.4 0.4 0.4 0.4 0.4 0.4 0.4
          0.4 0.4 0.4 0.4 0.4 0.4 0.4 0.4 0.4 0.4 0.4 0.4
          0.4 0.4 0.4 0.4 0.4 0.4 0.4 0.4 0.4 0.4 0.4 0.4
          0.4 0.4 0.4 0.4 0.4 0.4 0.4 0.4 0.4 0.4 0.4 0.4
          0.4 0.4 0.4 0.4 0.4 0.4 0.4 0.4 0.4 0.4 0.4 0.4
          0.4 0.4 0.4 0.4 0.4 0.4 0.4 0.4 0.4 0.4 0.4 0.4
        </DataArray>
        <DataArray type="Float32" Name="temperature" NumberOfComponents="1" format="ascii">
          283.15 283.15 283.15 283.15 283.15 283.15 283.15 283.15 283.15 283.15 283.15 283.15
          283.15 283.15 283.15 283.15 283.15 283.15 283.15 283.15 283.15 283.15 283.15 283.15
          283.15 283.15 283.15 283.15 283.15 283.15 283.15 283.15 283.15 283.15 283.15 283.15
          283.15 283.15 283.15 283.15 283.15 283.15 283.15 283.15 283.15 283.15 283.15 283.15
          283.15 283.15 283.15 283.15 283.15 283.15 283.15 283.15 283.15 283.15 283.15 283.15
          283.15 283.15 283.15 283.15 283.15 283.15 283.15 283.15 283.15 283.15 283.15 283.15
          283.15 283.15 283.15 283.15 283.15 283.15 283.15 283.15 283.15 283.15 283.15 283.15
          283.15 283.15 283.15 283.15 283.15 283.15 283.15 283.15 283.15 283.15 283.15 283.15
          283.15 283.15 283.15 283.15 283.15 283.15 283.15 283.15 283.15 283.15 283.15 283.15
          283.15 283.15 283.15 283.15 283.15 283.15 283.15 283.15 283.15 283.15 283.15 283.15
          283.15 283.15 283.15 283.15 283.15 283.15 283.15 283.15 283.15 283.15 283.15 283.15
          283.15 283.15 283.15 283.15 283.15 283.15 283.15 283.15 283.15 283.15 283.15 283.15
          283.15 283.15 283.15 283.15 283.15 283.15 283.15 283.15 283.15 283.15 283.15 283.15
          283.15 283.15 283.15 283.15 283.15 283.15 283.15 283.15 283.15 283.15 283.15 283.15
          283.15 283.15 283.15 283.15 283.15 283.15 283.15 283.15 283.15 283.15 283.15 283.15
          283.15 283.15 283.15 283.15 283.15 283.15 283.15 283.15 283.15 283.15 283.15 283.15
          283.15 283.15 283.15 283.15 283.15 283.15 283.15 283.15 283.15 283.15 283.15 283.15
        </DataArray>
        <DataArray type="Float32" Name="moleFrac_w^H2O" NumberOfComponents="1" format="ascii">
          0.999984 0.999984 0.999984 0.999984 0.999984 0.999984 0.999984 0.999984 0.999984 0.999984 0.999984 0.999984
          0.999984 0.999985 0.999985 0.999985 0.999985 0.999985 0.999985 0.999985 0.999985 0.999985 0.999985 0.999985
          0.999985 0.999985 0.999985 0.999985 0.999985 0.999985 0.999985 0.999985 0.999985 0.999985 0.999985 0.999985
          0.999985 0.999985 0.999985 0.999985 0.999985 0.999985 0.999985 0.999985 0.999985 0.999985 0.999985 0.999985
          0.999985 0.999985 0.999985 0.999985 0.999985 0.999985 0.999985 0.999985 0.999985 0.999985 0.999985 0.999985
          0.999985 0.999985 0.999985 0.999985 0.999985 0.999985 0.999985 0.999985 0.999985 0.999985 0.999985 0.999985
          0.999985 0.999985 0.999985 0.999985 0.999985 0.999985 0.999985 0.999985 0.999985 0.999985 0.999985 0.999985
          0.999985 0.999985 0.999985 0.999985 0.999985 0.999985 0.999985 0.999985 0.999985 0.999985 0.999985 0.999985
          0.999985 0.999985 0.999985 0.999985 0.999985 0.999985 0.999984 0.999984 0.999984 0.999984 0.999984 0.999984
          0.999985 0.999985 0.999985 0.999985 0.999985 0.999985 0.999985 0.999985 0.999985 0.999985 0.999985 0.999985
          0.999985 0.999985 0.999985 0.999985 0.999985 0.999985 0.999985 0.999985 0.999985 0.999985 0.999985 0.999985
          0.999985 0.999985 0.999985 0.999985 0.999985 0.999985 0.999985 0.999985 0.999985 0.999985 0.999985 0.999985
          0.999985 0.999985 0.999985 0.999985 0.999985 0.999985 0.999985 0.999985 0.999985 0.999984 0.999984 0.999984
          0.999984 0.999984 0.999981 0.999981 0.999981 0.999984 0.999985 0.999985 0.999985 0.999985 0.999985 0.999985
          0.999985 0.999985 0.999985 0.999985 0.999985 0.999985 0.999985 0.999985 0.999985 0.999985 0.999985 0.999985
          0.999985 0.999985 0.999985 0.999985 0.999985 0.999985 0.999985 0.999985 0.999985 0.999985 0.999985 0.999985
          0.999985 0.999985 0.999985 0.999985 0.999985 0.999985 0.999985 0.999985 0.999985 0.999985 0.999985 0.999985
        </DataArray>
        <DataArray type="Float32" Name="moleFrac_w^mesitylene" NumberOfComponents="1" format="ascii">
          3.67605e-19 -1.16493e-17 -2.93996e-18 -2.91115e-18 -3.24442e-18 7.92763e-18 1.10701e-17 0 -7.07868e-18 1.98124e-17 3.00488e-16 1.15497e-12
          4.13251e-16 1.15242e-12 3.29198e-16 8.91551e-13 2.3061e-17 5.82291e-14 3.08279e-18 2.1588e-15 -6.82297e-19 5.52439e-17 -6.80027e-19 2.03926e-18
          -1.69547e-18 3.38958e-19 1.01508e-18 0 1.01333e-18 -6.75285e-19 6.74645e-19 6.74375e-19 1.68485e-18 -1.0105e-18 1.34679e-18 1.34625e-18
          1.00947e-18 3.36355e-19 6.72664e-19 2.35338e-18 6.72426e-19 -1.00824e-18 2.35287e-18 1.34396e-18 -6.72115e-19 -1.67961e-18 -6.72016e-19 -1.00762e-18
          1.00791e-18 -6.71674e-19 -2.35161e-18 -1.00743e-18 -1.00777e-18 -6.71581e-19 2.35137e-18 -3.35776e-19 2.6872e-18 -1.0073e-18 -1.67946e-18 -2.68606e-18
          3.35887e-19 0 1.00765e-18 -1.00724e-18 -1.00764e-18 -1.67873e-18 1.34351e-18 -1.00723e-18 -6.71752e-19 6.71483e-19 -6.7175e-19 1.00722e-18
          1.00762e-18 -1.00722e-18 -6.71748e-19 3.35739e-19 1.00762e-18 1.34296e-18 -3.35873e-19 6.71477e-19 6.71746e-19 -3.35738e-19 -1.00762e-18 -1.67869e-18
          2.01524e-18 6.71477e-19 -1.00762e-18 -6.71477e-19 1.00762e-18 1.00721e-18 -3.35873e-19 1.34295e-18 1.00762e-18 0 3.35873e-19 0
          6.71745e-19 6.71477e-19 1.67938e-18 -6.71478e-19 3.35812e-19 1.00714e-18 -7.34804e-19 3.27373e-18 3.24182e-18 -7.1363e-19 1.93999e-14 3.19532e-09
          2.71076e-09 2.38581e-09 1.52859e-10 5.63623e-12 1.39385e-13 2.51239e-15 3.28658e-17 -6.76177e-19 -1.68754e-18 1.01116e-18 -6.73399e-19 -1.68214e-18
          1.00866e-18 6.72125e-19 -3.35944e-19 -3.35855e-19 -3.35788e-19 -1.00722e-18 -6.71405e-19 3.35676e-19 -2.01394e-18 -6.71283e-19 0 0
          -1.67809e-18 -6.71228e-19 -1.67805e-18 -1.00683e-18 -1.00682e-18 3.35606e-19 1.00682e-18 -1.00681e-18 -1.00681e-18 -3.35604e-19 1.67802e-18 -1.00681e-18
          -3.35604e-19 -1.00681e-18 -1.00681e-18 -3.35604e-19 0 6.71208e-19 -1.34242e-18 -1.00681e-18 6.7126e-19 7.34591e-19 2.5452e-18 6.12099e-18
          8.91681e-18 4.41977e-11 3.4029e-06 3.40292e-06 3.40294e-06 2.35655e-07 8.70704e-09 2.15672e-10 3.8752e-12 5.21619e-14 5.32276e-16 4.38584e-18
          6.73835e-19 -3.36565e-19 -6.72586e-19 -3.36086e-19 2.01557e-18 -3.35809e-19 6.71441e-19 6.71308e-19 -1.00681e-18 3.35568e-19 2.68433e-18 1.00656e-18
          2.34855e-18 6.70993e-19 3.69038e-18 1.00645e-18 6.70959e-19 1.00643e-18 6.70949e-19 6.70946e-19 6.70944e-19 1.34188e-18 6.70941e-19 1.00641e-18
          -6.7094e-19 1.00641e-18 -1.00641e-18 2.34829e-18 1.00641e-18 -1.00641e-18 6.70939e-19 -1.00641e-18 1.67735e-18 1.00641e-18 -3.35468e-19 1.67765e-18
        </DataArray>
        <DataArray type="Float32" Name="moleFrac_w^Air" NumberOfComponents="1" format="ascii">
          1.63942e-05 1.62335e-05 1.63893e-05 1.62268e-05 1.60734e-05 1.60669e-05 1.59205e-05 1.5914e-05 1.57776e-05 1.57712e-05 1.5647e-05 1.56407e-05
          1.55299e-05 1.55236e-05 1.5427e-05 1.54207e-05 1.53383e-05 1.53321e-05 1.52634e-05 1.52572e-05 1.5201e-05 1.51948e-05 1.51498e-05 1.51436e-05
          1.51083e-05 1.51022e-05 1.50751e-05 1.5069e-05 1.50489e-05 1.50428e-05 1.50284e-05 1.50223e-05 1.50125e-05 1.50064e-05 1.50002e-05 1.49941e-05
          1.49908e-05 1.49848e-05 1.49837e-05 1.49776e-05 1.49784e-05 1.49723e-05 1.49743e-05 1.49683e-05 1.49713e-05 1.49653e-05 1.49691e-05 1.4963e-05
          1.49675e-05 1.49614e-05 1.49662e-05 1.49602e-05 1.49654e-05 1.49593e-05 1.49647e-05 1.49586e-05 1.49642e-05 1.49582e-05 1.49639e-05 1.49578e-05
          1.49636e-05 1.49576e-05 1.49635e-05 1.49574e-05 1.49633e-05 1.49573e-05 1.49632e-05 1.49572e-05 1.49632e-05 1.49571e-05 1.49631e-05 1.4957e-05
          1.49631e-05 1.4957e-05 1.49631e-05 1.4957e-05 1.4963e-05 1.4957e-05 1.4963e-05 1.4957e-05 1.4963e-05 1.4957e-05 1.4963e-05 1.49569e-05
          1.4963e-05 1.49569e-05 1.4963e-05 1.49569e-05 1.4963e-05 1.49569e-05 1.4963e-05 1.49569e-05 1.4963e-05 1.49569e-05 1.4963e-05 1.49569e-05
          1.4963e-05 1.49569e-05 1.49631e-05 1.4957e-05 1.49603e-05 1.49558e-05 1.63851e-05 1.62202e-05 1.60604e-05 1.59076e-05 1.57648e-05 1.56344e-05
          1.55173e-05 1.54145e-05 1.53259e-05 1.5251e-05 1.51886e-05 1.51375e-05 1.50961e-05 1.50629e-05 1.50367e-05 1.50162e-05 1.50003e-05 1.4988e-05
          1.49787e-05 1.49716e-05 1.49662e-05 1.49622e-05 1.49592e-05 1.4957e-05 1.49553e-05 1.49541e-05 1.49532e-05 1.49526e-05 1.49521e-05 1.49518e-05
          1.49515e-05 1.49513e-05 1.49512e-05 1.49511e-05 1.4951e-05 1.4951e-05 1.4951e-05 1.49509e-05 1.49509e-05 1.49509e-05 1.49509e-05 1.49509e-05
          1.49509e-05 1.49509e-05 1.49509e-05 1.49509e-05 1.49509e-05 1.49509e-05 1.49509e-05 1.49509e-05 1.49521e-05 1.63803e-05 1.62136e-05 1.60539e-05
          1.59011e-05 1.57584e-05 1.56111e-05 1.5494e-05 1.53912e-05 1.53184e-05 1.52448e-05 1.51825e-05 1.51313e-05 1.50899e-05 1.50568e-05 1.50306e-05
          1.50101e-05 1.49942e-05 1.4982e-05 1.49726e-05 1.49655e-05 1.49602e-05 1.49561e-05 1.49531e-05 1.49509e-05 1.49493e-05 1.49481e-05 1.49472e-05
          1.49465e-05 1.4946e-05 1.49457e-05 1.49454e-05 1.49453e-05 1.49451e-05 1.4945e-05 1.4945e-05 1.49449e-05 1.49449e-05 1.49449e-05 1.49448e-05