<?xml version="1.0"?>
<VTKFile type="UnstructuredGrid" version="0.1" byte_order="LittleEndian">
  <UnstructuredGrid>
    <Piece NumberOfCells="150" NumberOfPoints="204">
      <PointData Scalars="pressure_w">
        <DataArray type="Float32" Name="pressure_w" NumberOfComponents="1" format="ascii">
          96942 95890.4 96920.9 95845.6 94814.9 94771.9 93781.6 93738.8 92809.7 92767.4 91915.6 91873.7
          91109.4 91067.8 90397.4 90356.1 89781.1 89739.9 89257.8 89216.9 88820.6 88779.9 88460.6 88420
          88168.3 88127.9 87934 87893.6 87748.2 87707.9 87602.4 87562.1 87489 87448.8 87401.7 87361.5
          87334.8 87294.7 87284.1 87244 87245.7 87205.6 87217 87176.9 87195.5 87155.4 87179.5 87139.4
          87167.7 87127.6 87159 87118.9 87152.6 87112.5 87147.9 87107.8 87144.5 87104.4 87142 87101.9
          87140.2 87100.1 87138.9 87098.8 87137.9 87097.9 87137.3 87097.2 87136.8 87096.7 87136.4 87096.4
          87136.2 87096.1 87136 87095.9 87135.9 87095.8 87135.8 87095.7 87135.7 87095.7 87135.7 87095.6
          87135.6 87095.6 87135.6 87095.6 87135.6 87095.6 87135.6 87095.6 87135.6 87095.6 87135.6 87095.6
          87135.6 87095.6 87136.9 87095.7 87100.7 87081.4 96907.4 95801.9 94728.6 93696.1 92725 91832
          91026.2 90314.8 89698.6 89176 88739.1 88379.5 88087.4 87853.2 87667.6 87521.9 87408.7 87321.4
          87254.6 87203.9 87165.6 87136.8 87115.3 87099.4 87087.6 87078.9 87072.5 87067.8 87064.4 87061.9
          87060.1 87058.8 87057.9 87057.2 87056.7 87056.3 87056.1 87055.9 87055.8 87055.7 87055.6 87055.6
          87055.6 87055.5 87055.5 87055.5 87055.5 87055.5 87055.5 87055.4 87069.7 96886.9 95757 94685.7
          93653.4 92682.7 91790.8 90765.2 90054.1 89657.2 89135.1 88698.4 88338.9 88047 87812.9 87627.3
          87481.7 87368.5 87281.2 87214.5 87163.8 87125.5 87096.8 87075.3 87059.3 87047.5 87038.8 87032.4
          87027.8 87024.4 87021.9 87020.1 87018.8 87017.8 87017.1 87016.7 87016.3 87016.1 87015.9 87015.8
          87015.7 87015.6 87015.6 87015.5 87015.5 87015.5 87015.5 87015.5 87015.5 87015.6 87014.2 87050.6
        </DataArray>
        <DataArray type="Float32" Name="pressure_n" NumberOfComponents="1" format="ascii">
          96942 95890.4 96920.9 95845.6 94814.9 94771.9 93781.6 93738.8 92809.7 92767.4 91915.6 91873.7
          91109.4 91067.8 90397.4 90356.1 89781.1 89739.9 89257.8 89216.9 88820.6 88779.9 88460.6 88420
          88168.3 88127.9 87934 87893.6 87748.2 87707.9 87602.4 87562.1 87489 87448.8 87401.7 87361.5
          87334.8 87294.7 87284.1 87244 87245.7 87205.6 87217 87176.9 87195.5 87155.4 87179.5 87139.4
          87167.7 87127.6 87159 87118.9 87152.6 87112.5 87147.9 87107.8 87144.5 87104.4 87142 87101.9
          87140.2 87100.1 87138.9 87098.8 87137.9 87097.9 87137.3 87097.2 87136.8 87096.7 87136.4 87096.4
          87136.2 87096.1 87136 87095.9 87135.9 87095.8 87135.8 87095.7 87135.7 87095.7 87135.7 87095.6
          87135.6 87095.6 87135.6 87095.6 87135.6 87095.6 87135.6 87095.6 87135.6 87095.6 87135.6 87095.6
          87135.6 87095.6 87136.9 87095.7 87100.7 87081.4 96907.4 95801.9 94728.6 93696.1 92725 91832
          91026.2 90314.8 89698.6 89176 88739.1 88379.5 88087.4 87853.2 87667.6 87521.9 87408.7 87321.4
          87254.6 87203.9 87165.6 87136.8 87115.3 87099.4 87087.6 87078.9 87072.5 87067.8 87064.4 87061.9
          87060.1 87058.8 87057.9 87057.2 87056.7 87056.3 87056.1 87055.9 87055.8 87055.7 87055.6 87055.6
          87055.6 87055.5 87055.5 87055.5 87055.5 87055.5 87055.5 87055.4 87069.7 96886.9 95757 94685.7
          93653.4 92682.7 91790.8 90993.7 90282.6 89657.2 89135.1 88698.4 88338.9 88047 87812.9 87627.3
          87481.7 87368.5 87281.2 87214.5 87163.8 87125.5 87096.8 87075.3 87059.3 87047.5 87038.8 87032.4
          87027.8 87024.4 87021.9 87020.1 87018.8 87017.8 87017.1 87016.7 87016.3 87016.1 87015.9 87015.8
          87015.7 87015.6 87015.6 87015.5 87015.5 87015.5 87015.5 87015.5 87015.5 87015.6 87014.2 87050.6
        </DataArray>
        <DataArray type="Float32" Name="pressure_g" NumberOfComponents="1" format="ascii">
          109867 108815 109845 108770 107739 107696 106706 106663 105734 105692 104840 104798
          104034 103992 103322 103281 102706 102664 102182 102141 101745 101704 101385 101345
          101093 101052 100858 100818 100673 100632 100527 100487 100414 100373 100326 100286
          100259 100219 100209 100168 100170 100130 100141 100101 100120 100080 100104 100064
          100092 100052 100084 100043 100077 100037 100072 100032 100069 100029 100067 100026
          100065 100025 100063 100023 100062 100022 100062 100022 100061 100021 100061 100021
          100061 100021 100061 100020 100060 100020 100060 100020 100060 100020 100060 100020
          100060 100020 100060 100020 100060 100020 100060 100020 100060 100020 100060 100020
          100060 100020 100061 100020 100025 100006 109832 108726 107653 106621 105649 104756
          103951 103239 102623 102100 101664 101304 101012 100778 100592 100446 100333 100246
          100179 100128 100090 100061 100040 100024 100012 100003 99997 99992.3 99988.9 99986.4
          99984.6 99983.3 99982.4 99981.7 99981.2 99980.9 99980.6 99980.4 99980.3 99980.2 99980.2 99980.1
          99980.1 99980.1 99980.1 99980.1 99980.1 99980.1 99980 99979.9 99994.2 109811 108681 107610
          106578 105607 104715 103909 103198 102582 102060 101623 101263 100971 100737 100552
          100406 100293 100206 100139 100088 100050 100021 99999.8 99983.9 99972.1 99963.4 99957
          99952.3 99948.9 99946.4 99944.6 99943.3 99942.4 99941.7 99941.2 99940.8 99940.6 99940.4 99940.3
          99940.2 99940.1 99940.1 99940.1 99940 99940 99940 99940 99940 99940.1 99938.8 99975.1
        </DataArray>
        <DataArray type="Float32" Name="density_w" NumberOfComponents="1" format="ascii">
          999.71 999.709 999.71 999.709 999.708 999.708 999.708 999.708 999.707 999.707 999.707 999.707
          999.706 999.706 999.706 999.706 999.706 999.706 999.705 999.705 999.705 999.705 999.705 999.705
          999.705 999.705 999.705 999.705 999.704 999.704 999.704 999.704 999.704 999.704 999.704 999.704
          999.704 999.704 999.704 999.704 999.704 999.704 999.704 999.704 999.704 999.704 999.704 999.704
          999.704 999.704 999.704 999.704 999.704 999.704 999.704 999.704 999.704 999.704 999.704 999.704
          999.704 999.704 999.704 999.704 999.704 999.704 999.704 999.704 999.704 999.704 999.704 999.704
          999.704 999.704 999.704 999.704 999.704 999.704 999.704 999.704 999.704 999.704 999.704 999.704
          999.704 999.704 999.704 999.704 999.704 999.704 999.704 999.704 999.704 999.704 999.704 999.704
          999.704 999.704 999.704 999.704 999.704 999.704 999.71 999.709 999.708 999.708 999.707 999.707
          999.706 999.706 999.706 999.705 999.705 999.705 999.705 999.704 999.704 999.704 999.704 999.704
          999.704 999.704 999.704 999.704 999.704 999.704 999.704 999.704 999.704 999.704 999.704 999.704
          999.704 999.704 999.704 999.704 999.704 999.704 999.704 999.704 999.704 999.704 999.704 999.704
          999.704 999.704 999.704 999.704 999.704 999.704 999.704 999.704 999.704 999.71 999.709 999.708
          999.708 999.707 999.726 999.725 999.725 999.707 999.705 999.705 999.705 999.705 999.704 999.704
          999.704 999.704 999.704 999.704 999.704 999.704 999.704 999.704 999.704 999.704 999.704 999.704
          999.704 999.704 999.704 999.704 999.704 999.704 999.704 999.704 999.704 999.704 999.704 999.704
          999.704 999.704 999.704 999.704 999.704 999.704 999.704 999.704 999.704 999.704 999.704 999.704
        </DataArray>
        <DataArray type="Float32" Name="density_n" NumberOfComponents="1" format="ascii">
          878.771 878.771 878.771 878.771 878.771 878.771 878.771 878.771 878.771 878.771 878.771 878.771
          878.771 878.771 878.771 878.771 878.771 878.771 878.771 878.771 878.771 878.771 878.771 878.771
          878.771 878.771 878.771 878.771 878.771 878.771 878.771 878.771 878.771 878.771 878.771 878.771
          878.771 878.771 878.771 878.771 878.771 878.771 878.771 878.771 878.771 878.771 878.771 878.771
          878.771 878.771 878.771 878.771 878.771 878.771 878.771 878.771 878.771 878.771 878.771 878.771
          878.771 878.771 878.771 878.771 878.771 878.771 878.771 878.771 878.771 878.771 878.771 878.771
          878.771 878.771 878.771 878.771 878.771 878.771 878.771 878.771 878.771 878.771 878.771 878.771
          878.771 878.771 878.771 878.771 878.771 878.771 878.771 878.771 878.771 878.771 878.771 878.771
          878.771 878.771 878.771 878.771 878.771 878.771 878.771 878.771 878.771 878.771 878.771 878.771
          878.771 878.771 878.771 878.771 878.771 878.771 878.771 878.771 878.771 878.771 878.771 878.771
          878.771 878.771 878.771 878.771 878.771 878.771 878.771 878.771 878.771 878.771 878.771 878.771
          878.771 878.771 878.771 878.771 878.771 878.771 878.771 878.771 878.771 878.771 878.771 878.771
          878.771 878.771 878.771 878.771 878.771 878.771 878.771 878.771 878.771 878.771 878.771 878.771
          878.771 878.771 878.771 878.771 878.771 878.771 878.771 878.771 878.771 878.771 878.771 878.771
          878.771 878.771 878.771 878.771 878.771 878.771 878.771 878.771 878.771 878.771 878.771 878.771
          878.771 878.771 878.771 878.771 878.771 878.771 878.771 878.771 878.771 878.771 878.771 878.771
          878.771 878.771 878.771 878.771 878.771 878.771 878.771 878.771 878.771 878.771 878.771 878.771
        </DataArray>
        <DataArray type="Float32" Name="density_g" NumberOfComponents="1" format="ascii">
          1.34579 1.33285 1.34553 1.3323 1.31962 1.31909 1.30691 1.30638 1.29495 1.29443 1.28396 1.28344
          1.27404 1.27353 1.26528 1.26477 1.2577 1.25719 1.25126 1.25076 1.24588 1.24538 1.24146 1.24096
          1.23786 1.23736 1.23498 1.23448 1.23269 1.2322 1.2309 1.2304 1.22951 1.22901 1.22843 1.22794
          1.22761 1.22711 1.22698 1.22649 1.22651 1.22602 1.22616 1.22567 1.22589 1.2254 1.2257 1.2252
          1.22555 1.22506 1.22545 1.22495 1.22537 1.22487 1.22531 1.22482 1.22527 1.22477 1.22524 1.22474
          1.22521 1.22472 1.2252 1.22471 1.22519 1.22469 1.22518 1.22469 1.22517 1.22468 1.22517 1.22468
          1.22516 1.22467 1.22516 1.22467 1.22516 1.22467 1.22516 1.22467 1.22516 1.22467 1.22516 1.22467
          1.22516 1.22467 1.22516 1.22467 1.22516 1.22467 1.22516 1.22467 1.22516 1.22467 1.22516 1.22467
          1.22516 1.22467 1.22517 1.22467 1.22473 1.22449 1.34536 1.33176 1.31856 1.30586 1.29391 1.28293
          1.27302 1.26427 1.25669 1.25026 1.24488 1.24046 1.23687 1.23399 1.2317 1.22991 1.22852 1.22744
          1.22662 1.226 1.22553 1.22517 1.22491 1.22471 1.22457 1.22446 1.22438 1.22432 1.22428 1.22425
          1.22423 1.22421 1.2242 1.22419 1.22419 1.22418 1.22418 1.22418 1.22418 1.22417 1.22417 1.22417
          1.22417 1.22417 1.22417 1.22417 1.22417 1.22417 1.22417 1.22417 1.22435 1.34511 1.33121 1.31803
          1.30533 1.29339 1.28677 1.27686 1.26811 1.2565 1.24977 1.24438 1.23996 1.23637 1.23349 1.23121
          1.22941 1.22802 1.22695 1.22613 1.2255 1.22503 1.22468 1.22442 1.22422 1.22407 1.22397 1.22389
          1.22383 1.22379 1.22376 1.22374 1.22372 1.22371 1.2237 1.22369 1.22369 1.22369 1.22369 1.22368
          1.22368 1.22368 1.22368 1.22368 1.22368 1.22368 1.22368 1.22368 1.22368 1.22368 1.22366 1.22411
        </DataArray>
        <DataArray type="Float32" Name="saturation_w" NumberOfComponents="1" format="ascii">
          0.119993 0.12 0.119992 0.12 0.12 0.12 0.12 0.12 0.12 0.12 0.12 0.12
          0.12 0.12 0.12 0.12 0.12 0.12 0.12 0.12 0.12 0.12 0.12 0.12
          0.12 0.12 0.12 0.12 0.12 0.12 0.12 0.12 0.12 0.12 0.12 0.12
          0.12 0.12 0.12 0.12 0.12 0.12 0.12 0.12 0.12 0.12 0.12 0.12
          0.12 0.12 0.12 0.12 0.12 0.12 0.12 0.12 0.12 0.12 0.12 0.12
          0.12 0.12 0.12 0.12 0.12 0.12 0.12 0.12 0.12 0.12 0.12 0.12
          0.12 0.12 0.12 0.12 0.12 0.12 0.12 0.12 0.12 0.12 0.12 0.12
          0.12 0.12 0.12 0.12 0.12 0.12 0.12 0.12 0.12 0.12 0.12 0.12
          0.12 0.12 0.12 0.12 0.12 0.12 0.119992 0.12 0.12 0.12 0.12 0.12
          0.12 0.12 0.12 0.12 0.12 0.12 0.12 0.12 0.12 0.12 0.12 0.12
          0.12 0.12 0.12 0.12 0.12 0.12 0.12 0.12 0.12 0.12 0.12 0.12
          0.12 0.12 0.12 0.12 0.12 0.12 0.12 0.12 0.12 0.12 0.12 0.12
          0.12 0.12 0.12 0.12 0.12 0.12 0.12 0.12 0.12 0.119991 0.12 0.12
          0.12 0.12 0.120001 0.120001 0.120001 0.12 0.12 0.12 0.12 0.12 0.12 0.12
          0.12 0.12 0.12 0.12 0.12 0.12 0.12 0.12 0.12 0.12 0.12 0.12
          0.12 0.12 0.12 0.12 0.12 0.12 0.12 0.12 0.12 0.12 0.12 0.12
          0.12 0.12 0.12 0.12 0.12 0.12 0.12 0.12 0.12 0.12 0.12 0.119999
        </DataArray>
        <DataArray type="Float32" Name="saturation_n" NumberOfComponents="1" format="ascii">
          0 0 0 0 0 0 0 0 0 0 0 0
          0 0 0 0 0 0 0 0 0 0 0 0
          0 0 0 0 0 0 0 0 0 0 0 0
          0 0 0 0 0 0 0 0 0 0 0 0
          0 0 0 0 0 0 0 0 0 0 0 0
          0 0 0 0 0 0 0 0 0 0 0 0
          0 0 0 0 0 0 0 0 0 0 0 0
          0 0 0 0 0 0 0 0 0 0 0 0
          0 0 0 0 0 0 0 0 0 0 0 0
          0 0 0 0 0 0 0 0 0 0 0 0
          0 0 0 0 0 0 0 0 0 0 0 0
          0 0 0 0 0 0 0 0 0 0 0 0
          0 0 0 0 0 0 0 0 0 0 0 0
          0 0 0.000604703 0.00122063 0.00122059 0 0 0 0 0 0 0
          0 0 0 0 0 0 0 0 0 0 0 0
          0 0 0 0 0 0 0 0 0 0 0 0
          0 0 0 0 0 0 0 0 0 0 0 0
        </DataArray>
        <DataArray type="Float32" Name="saturation_g" NumberOfComponents="1" format="ascii">
          0.880007 0.88 0.880008 0.88 0.88 0.88 0.88 0.88 0.88 0.88 0.88 0.88
          0.88 0.88 0.88 0.88 0.88 0.88 0.88 0.88 0.88 0.88 0.88 0.88
          0.88 0.88 0.88 0.88 0.88 0.88 0.88 0.88 0.88 0.88 0.88 0.88
          0.88 0.88 0.88 0.88 0.88 0.88 0.88 0.88 0.88 0.88 0.88 0.88
          0.88 0.88 0.88 0.88 0.88 0.88 0.88 0.88 0.88 0.88 0.88 0.88
          0.88 0.88 0.88 0.88 0.88 0.88 0.88 0.88 0.88 0.88 0.88 0.88
          0.88 0.88 0.88 0.88 0.88 0.88 0.88 0.88 0.88 0.88 0.88 0.88
          0.88 0.88 0.88 0.88 0.88 0.88 0.88 0.88 0.88 0.88 0.88 0.88
          0.88 0.88 0.88 0.88 0.88 0.88 0.880008 0.88 0.88 0.88 0.88 0.88
          0.88 0.88 0.88 0.88 0.88 0.88 0.88 0.88 0.88 0.88 0.88 0.88
          0.88 0.88 0.88 0.88 0.88 0.88 0.88 0.88 0.88 0.88 0.88 0.88
          0.88 0.88 0.88 0.88 0.88 0.88 0.88 0.88 0.88 0.88 0.88 0.88
          0.88 0.88 0.88 0.88 0.88 0.88 0.88 0.88 0.88 0.880009 0.88 0.88
          0.88 0.88 0.879395 0.878779 0.878779 0.88 0.88 0.88 0.88 0.88 0.88 0.88
          0.88 0.88 0.88 0.88 0.88 0.88 0.88 0.88 0.88 0.88 0.88 0.88
          0.88 0.88 0.88 0.88 0.88 0.88 0.88 0.88 0.88 0.88 0.88 0.88
          0.88 0.88 0.88 0.88 0.88 0.88 0.88 0.88 0.88 0.88 0.88 0.880001
        </DataArray>
        <DataArray type="Float32" Name="relativePerm_w" NumberOfComponents="1" format="ascii">
          0 1.30208e-21 0 1.25369e-21 1.24372e-21 1.22046e-21 9.53264e-22 9.32546e-22 6.6034e-22 6.44108e-22 4.26454e-22 4.14363e-22
          2.59548e-22 2.50843e-22 1.50084e-22 1.44071e-22 8.29154e-23 7.88857e-23 4.40343e-23 4.14233e-23 2.25693e-23 2.09178e-23 1.12196e-23 1.0199e-23
          5.43988e-24 4.82152e-24 2.58805e-24 2.21934e-24 1.21625e-24 9.99038e-25 5.68844e-25 4.41856e-25 2.67019e-25 1.92984e-25 1.26994e-25 8.37054e-26
          6.18361e-26 3.62897e-26 3.11693e-26 1.58435e-26 1.64454e-26 7.02592e-27 9.17521e-27 3.19594e-27 5.45681e-27 1.50763e-27 3.47665e-27 7.45891e-28
          2.37548e-27 3.91309e-28 1.73625e-27 2.19678e-28 1.34963e-27 1.32813e-28 1.10715e-27 8.66667e-29 9.50304e-28 6.09212e-29 8.46185e-28 4.58757e-29
          7.75705e-28 3.6699e-29 7.27261e-28 3.09016e-29 6.93582e-28 2.71269e-29 6.69987e-28 2.46109e-29 6.53346e-28 2.29033e-29 6.41574e-28 2.17272e-29
          6.33277e-28 2.09145e-29 6.27403e-28 2.03486e-29 6.23232e-28 1.99521e-29 6.20339e-28 1.96786e-29 6.18292e-28 1.94871e-29 6.16883e-28 1.93558e-29
          6.16001e-28 1.92705e-29 6.15419e-28 1.9218e-29 6.15124e-28 1.91859e-29 6.14984e-28 1.91786e-29 6.14983e-28 1.9185e-29 6.15512e-28 1.91724e-29
          6.13325e-28 1.92574e-29 6.85685e-28 2.14463e-29 4.76045e-29 6.47287e-31 0 1.1985e-21 1.1967e-21 9.12319e-22 6.28155e-22 4.05373e-22
          2.43933e-22 1.39185e-22 7.50127e-23 3.89221e-23 1.93501e-23 9.2432e-24 4.25266e-24 1.88806e-24 8.09855e-25 3.35705e-25 1.3435e-25 5.17678e-26
          1.91028e-26 6.68784e-27 2.18636e-27 6.4917e-28 1.66299e-28 3.30081e-29 3.83056e-30 6.91754e-32 0 0 0 0
          0 0 0 0 0 0 0 0 0 0 0 0
          0 0 0 0 0 0 0 0 0 0 1.1505e-21 1.17414e-21
          8.92177e-22 6.12433e-22 1.48894e-20 1.38742e-20 1.19767e-20 1.5747e-22 3.81591e-23 1.78888e-23 8.34989e-24 3.73097e-24 1.59201e-24 6.46616e-25
          2.48394e-25 8.92113e-26 2.93523e-26 8.52645e-27 2.03336e-27 3.3644e-28 2.23349e-29 0 0 0 0 0
          0 0 0 0 0 0 0 0 0 0 0 0
          0 0 0 0 0 0 0 0 0 0 0 0
        </DataArray>
        <DataArray type="Float32" Name="relativePerm_n" NumberOfComponents="1" format="ascii">
          0 0 0 0 0 0 0 0 0 0 0 0
          0 0 0 0 0 0 0 0 0 0 0 0
          0 0 0 0 0 0 0 0 0 0 0 0
          0 0 0 0 0 0 0 0 0 0 0 0
          0 0 0 0 0 0 0 0 0 0 0 0
          0 0 0 0 0 0 0 0 0 0 0 0
          0 0 0 0 0 0 0 0 0 0 0 0
          0 0 0 0 0 0 0 0 0 0 0 0
          0 0 0 0 0 0 0 0 0 0 0 0
          0 0 0 0 0 0 0 0 0 0 0 0
          0 0 0 0 0 0 0 0 0 0 0 0
          0 0 0 0 0 0 0 0 0 0 0 0
          0 0 0 0 0 0 0 0 0 0 0 0
          0 0 5.43471e-11 5.01917e-10 5.0184e-10 0 0 0 0 0 0 0
          0 0 0 0 0 0 0 0 0 0 0 0
          0 0 0 0 0 0 0 0 0 0 0 0
          0 0 0 0 0 0 0 0 0 0 0 0
        </DataArray>
        <DataArray type="Float32" Name="relativePerm_g" NumberOfComponents="1" format="ascii">
          0.907723 0.907713 0.907723 0.907713 0.907713 0.907713 0.907714 0.907714 0.907714 0.907714 0.907714 0.907714
          0.907714 0.907714 0.907714 0.907714 0.907714 0.907714 0.907714 0.907714 0.907714 0.907714 0.907714 0.907714
          0.907714 0.907714 0.907714 0.907714 0.907714 0.907714 0.907714 0.907714 0.907714 0.907714 0.907714 0.907714
          0.907714 0.907714 0.907714 0.907714 0.907714 0.907714 0.907714 0.907714 0.907714 0.907714 0.907714 0.907714
          0.907714 0.907714 0.907714 0.907714 0.907714 0.907714 0.907714 0.907714 0.907714 0.907714 0.907714 0.907714
          0.907714 0.907714 0.907714 0.907714 0.907714 0.907714 0.907714 0.907714 0.907714 0.907714 0.907714 0.907714
          0.907714 0.907714 0.907714 0.907714 0.907714 0.907714 0.907714 0.907714 0.907714 0.907714 0.907714 0.907714
          0.907714 0.907714 0.907714 0.907714 0.907714 0.907714 0.907714 0.907714 0.907714 0.907714 0.907714 0.907714
          0.907714 0.907714 0.907714 0.907714 0.907714 0.907714 0.907724 0.907713 0.907713 0.907714 0.907714 0.907714
          0.907714 0.907714 0.907714 0.907714 0.907714 0.907714 0.907714 0.907714 0.907714 0.907714 0.907714 0.907714
          0.907714 0.907714 0.907714 0.907714 0.907714 0.907714 0.907714 0.907714 0.907714 0.907714 0.907714 0.907714
          0.907714 0.907714 0.907714 0.907714 0.907714 0.907714 0.907714 0.907714 0.907714 0.907714 0.907714 0.907714
          0.907714 0.907714 0.907714 0.907714 0.907714 0.907714 0.907714 0.907714 0.907714 0.907725 0.907713 0.907713
          0.907714 0.907714 0.90697 0.906212 0.906212 0.907714 0.907714 0.907714 0.907714 0.907714 0.907714 0.907714
          0.907714 0.907714 0.907714 0.907714 0.907714 0.907714 0.907714 0.907714 0.907714 0.907714 0.907714 0.907714
          0.907714 0.907714 0.907714 0.907714 0.907714 0.907714 0.907714 0.907714 0.907714 0.907714 0.907714 0.907714
          0.907714 0.907714 0.907714 0.907714 0.907714 0.907714 0.907714 0.907714 0.907714 0.907714 0.907714 0.907715
        </DataArray>
        <DataArray type="Float32" Name="porosity" NumberOfComponents="1" format="ascii">
          0.4 0.4 0.4 0.4 0.4 0.4 0.4 0.4 0.4 0.4 0.4 0.4
          0.4 0.4 0.4 0.4 0.4 0.4 0.4 0.4 0.4 0.4 0.4 0.4
          0.4 0.4 0.4 0.4 0.4 0.4 0.4 0.4 0.4 0.4 0.4 0.4
          0.4 0.4 0.4 0.4 0.4 0.4 0.4 0.4 0.4 0.4 0.4 0.4
          0.4 0.4 0.4 0.4 0.4 0.4 0.4 0.4 0.4 0.4 0.4 0.4
          0.4 0.4 0.4 0.4 0.4 0.4 0.4 0.4 0.4 0.4 0.4 0.4
          0.4 0.4 0.4 0.4 0.4 0.4 0.4 0.4 0.4 0.4 0.4 0.4
          0.4 0.4 0.4 0.4 0.4 0.4 0.4 0.4 0.4 0.4 0.4 0.4
          0.4 0.4 0.4 0.4 0.4 0.4 0.4 0.4 0.4 0.4 0.4 0.4
          0.4 0.4 0.4 0.4 0.4 0.4 0.4 0.4 0.4 0.4 0.4 0.4
          0.4 0.4 0.4 0.4 0.4 0.4 0.4 0.4 0.4 0.4 0.4 0.4
          0.4 0.4 0.4 0.4 0.4 0.4 0.4 0.4 0.4 0.4 0.4 0.4
          0.4 0.4 0.4 0.4 0.4 0.4 0.4 0.4 0.4 0.4 0.4 0.4
          0.4 0.4 0.4 0.4 0.4 0.4 0.4 0.4 0.4 0.4 0.4 0.4
          0.4 0.4 0.4 0.4 0.4 0.4 0.4 0.4 0.4 0.4 0.4 0.4
          0.4 0.4 0.4 0.4 0.4 0.4 0.4 0.4 0.4 0.4 0.4 0.4
          0.4 0.4 0.4 0.4 0.4 0.4 0.4 0.4 0.4 0.4 0.4 0.4
        </DataArray>
        <DataArray type="Float32" Name="moleFrac_w^H2O" NumberOfComponents="1" format="ascii">
          0.999984 0.999984 0.999984 0.999984 0.999984 0.999984 0.999984 0.999984 0.999984 0.999984 0.999984 0.999984
          0.999984 0.999984 0.999985 0.999985 0.999985 0.999985 0.999985 0.999985 0.999985 0.999985 0.999985 0.999985
          0.999985 0.999985 0.999985 0.999985 0.999985 0.999985 0.999985 0.999985 0.999985 0.999985 0.999985 0.999985
          0.999985 0.999985 0.999985 0.999985 0.999985 0.999985 0.999985 0.999985 0.999985 0.999985 0.999985 0.999985
          0.999985 0.999985 0.999985 0.999985 0.999985 0.999985 0.999985 0.999985 0.999985 0.999985 0.999985 0.999985
          0.999985 0.999985 0.999985 0.999985 0.999985 0.999985 0.999985 0.999985 0.999985 0.999985 0.999985 0.999985
          0.999985 0.999985 0.999985 0.999985 0.999985 0.999985 0.999985 0.999985 0.999985 0.999985 0.999985 0.999985
          0.999985 0.999985 0.999985 0.999985 0.999985 0.999985 0.999985 0.999985 0.999985 0.999985 0.999985 0.999985
          0.999985 0.999985 0.999985 0.999985 0.999985 0.999985 0.999984 0.999984 0.999984 0.999984 0.999984 0.999984
          0.999984 0.999985 0.999985 0.999985 0.999985 0.999985 0.999985 0.999985 0.999985 0.999985 0.999985 0.999985
          0.999985 0.999985 0.999985 0.999985 0.999985 0.999985 0.999985 0.999985 0.999985 0.999985 0.999985 0.999985
          0.999985 0.999985 0.999985 0.999985 0.999985 0.999985 0.999985 0.999985 0.999985 0.999985 0.999985 0.999985
          0.999985 0.999985 0.999985 0.999985 0.999985 0.999985 0.999985 0.999985 0.999985 0.999984 0.999984 0.999984
          0.999984 0.999984 0.999981 0.999981 0.999981 0.999984 0.999985 0.999985 0.999985 0.999985 0.999985 0.999985
          0.999985 0.999985 0.999985 0.999985 0.999985 0.999985 0.999985 0.999985 0.999985 0.999985 0.999985 0.999985
          0.999985 0.999985 0.999985 0.999985 0.999985 0.999985 0.999985 0.999985 0.999985 0.999985 0.999985 0.999985
          0.999985 0.999985 0.999985 0.999985 0.999985 0.999985 0.999985 0.999985 0.999985 0.999985 0.999985 0.999985
        </DataArray>
        <DataArray type="Float32" Name="moleFrac_w^mesitylene" NumberOfComponents="1" format="ascii">
          1.47516e-18 -8.03571e-18 -3.68719e-19 -2.19066e-18 6.14804e-18 0 8.59634e-18 8.23486e-18 -3.9041e-18 7.45031e-18 3.11095e-16 1.19803e-12
          4.20101e-16 1.15522e-12 3.33295e-16 8.82223e-13 2.41327e-17 6.16208e-14 -1.92078e-17 2.4463e-15 -3.75681e-18 6.34989e-17 4.42416e-18 3.40184e-19
          -3.39339e-19 -2.37442e-18 -6.77105e-19 -6.76834e-19 1.68964e-18 1.01338e-18 -6.74879e-19 6.74608e-19 -6.74118e-19 -6.73848e-19 1.0103e-18 -2.35642e-18
          -1.00962e-18 -3.36407e-19 -1.00911e-18 1.34495e-18 6.72484e-19 0 6.72291e-19 6.72022e-19 1.00822e-18 -6.71878e-19 6.7204e-19 1.00766e-18
          2.68784e-18 2.35092e-18 -1.00785e-18 6.71633e-19 1.67965e-18 -1.00739e-18 6.71828e-19 6.71559e-19 6.71805e-19 2.35038e-18 1.34358e-18 1.34304e-18
          -1.00766e-18 6.71507e-19 -2.35119e-18 1.00725e-18 0 1.00724e-18 1.00763e-18 2.01446e-18 6.71753e-19 -3.35742e-19 -1.00763e-18 3.69315e-18
          0 -1.00722e-18 6.71748e-19 -1.6787e-18 1.34349e-18 1.6787e-18 -1.00762e-18 1.00722e-18 1.00762e-18 1.67869e-18 6.71746e-19 -6.71477e-19
          3.35873e-19 2.01443e-18 6.71745e-19 -1.34295e-18 -1.00762e-18 1.00721e-18 -2.01524e-18 1.00721e-18 -1.00762e-18 -6.71476e-19 -3.35873e-19 6.71476e-19
          1.67936e-18 3.35738e-19 2.35114e-18 1.00722e-18 2.01453e-18 2.68553e-18 0 2.9197e-18 1.33703e-17 6.0842e-18 1.75118e-14 3.27397e-09
          2.71291e-09 2.36615e-09 1.61904e-10 6.39687e-12 1.69629e-13 3.28282e-15 4.67913e-17 9.1336e-18 2.70127e-18 1.34868e-18 -2.02073e-18 3.36496e-19
          -6.72544e-19 -6.72203e-19 -1.00792e-18 2.01526e-18 6.71609e-19 -2.35026e-18 0 1.67841e-18 1.34264e-18 0 -1.0069e-18 -1.3425e-18
          -1.00686e-18 -2.01369e-18 6.71223e-19 -3.35609e-19 1.00682e-18 1.00682e-18 -6.71211e-19 1.67803e-18 2.01363e-18 -1.00681e-18 1.00681e-18 -1.00681e-18
          1.00681e-18 -1.00681e-18 -1.00681e-18 2.01362e-18 -1.00681e-18 1.34242e-18 6.71207e-19 1.00681e-18 -1.00695e-18 -2.94884e-18 1.45925e-18 7.22431e-19
          7.87051e-18 4.06927e-11 3.40289e-06 3.40291e-06 3.40294e-06 2.51943e-07 9.96172e-09 2.64345e-10 5.09822e-12 7.38509e-14 8.11212e-16 7.42551e-18
          1.0111e-18 -1.00996e-18 3.36361e-19 -2.01682e-18 2.35177e-18 -3.35839e-19 1.67871e-18 -1.34268e-18 1.34247e-18 1.00673e-18 1.67774e-18 1.00658e-18
          -1.00653e-18 6.70998e-19 1.00647e-18 0 -2.68384e-18 3.35477e-19 1.00642e-18 3.69021e-18 1.00642e-18 1.00641e-18 1.67735e-18 3.3547e-19
          -2.01282e-18 1.00641e-18 3.3547e-19 2.01282e-18 -6.70939e-19 6.70939e-19 1.00641e-18 -1.00641e-18 1.67735e-18 6.70939e-19 -1.34186e-18 0
        </DataArray>
        <DataArray type="Float32" Name="moleFrac_w^Air" NumberOfComponents="1" format="ascii">
          1.64477e-05 1.62884e-05 1.64445e-05 1.62817e-05 1.61256e-05 1.61191e-05 1.59692e-05 1.59627e-05 1.5822e-05 1.58156e-05 1.56867e-05 1.56803e-05
          1.55646e-05 1.55583e-05 1.54568e-05 1.54506e-05 1.53635e-05 1.53573e-05 1.52843e-05 1.52781e-05 1.52181e-05 1.52119e-05 1.51636e-05 1.51575e-05
          1.51193e-05 1.51132e-05 1.50839e-05 1.50778e-05 1.50557e-05 1.50496e-05 1.50337e-05 1.50276e-05 1.50165e-05 1.50104e-05 1.50033e-05 1.49972e-05
          1.49932e-05 1.49871e-05 1.49855e-05 1.49794e-05 1.49797e-05 1.49736e-05 1.49753e-05 1.49692e-05 1.49721e-05 1.4966e-05 1.49696e-05 1.49636e-05
          1.49679e-05 1.49618e-05 1.49665e-05 1.49605e-05 1.49656e-05 1.49595e-05 1.49649e-05 1.49588e-05 1.49643e-05 1.49583e-05 1.4964e-05 1.49579e-05
          1.49637e-05 1.49576e-05 1.49635e-05 1.49574e-05 1.49634e-05 1.49573e-05 1.49632e-05 1.49572e-05 1.49632e-05 1.49571e-05 1.49631e-05 1.49571e-05
          1.49631e-05 1.4957e-05 1.49631e-05 1.4957e-05 1.4963e-05 1.4957e-05 1.4963e-05 1.4957e-05 1.4963e-05 1.4957e-05 1.4963e-05 1.49569e-05
          1.4963e-05 1.49569e-05 1.4963e-05 1.49569e-05 1.4963e-05 1.49569e-05 1.4963e-05 1.49569e-05 1.4963e-05 1.49569e-05 1.4963e-05 1.49569e-05
          1.4963e-05 1.49569e-05 1.49632e-05 1.4957e-05 1.49577e-05 1.49548e-05 1.64424e-05 1.6275e-05 1.61126e-05 1.59562e-05 1.58092e-05 1.5674e-05
          1.5552e-05 1.54443e-05 1.5351e-05 1.52719e-05 1.52058e-05 1.51513e-05 1.51071e-05 1.50716e-05 1.50435e-05 1.50215e-05 1.50043e-05 1.49911e-05
          1.4981e-05 1.49733e-05 1.49675e-05 1.49632e-05 1.49599e-05 1.49575e-05 1.49557e-05 1.49544e-05 1.49534e-05 1.49527e-05 1.49522e-05 1.49518e-05
          1.49516e-05 1.49514e-05 1.49512e-05 1.49511e-05 1.4951e-05 1.4951e-05 1.4951e-05 1.49509e-05 1.49509e-05 1.49509e-05 1.49509e-05 1.49509e-05
          1.49509e-05 1.49509e-05 1.49509e-05 1.49509e-05 1.49509e-05 1.49509e-05 1.49509e-05 1.49509e-05 1.4953e-05 1.64393e-05 1.62683e-05 1.61061e-05
          1.59498e-05 1.58028e-05 1.56507e-05 1.55287e-05 1.5421e-05 1.53435e-05 1.52657e-05 1.51996e-05 1.51452e-05 1.5101e-05 1.50655e-05 1.50374e-05
          1.50154e-05 1.49983e-05 1.4985e-05 1.49749e-05 1.49673e-05 1.49615e-05 1.49571e-05 1.49539e-05 1.49515e-05 1.49497e-05 1.49483e-05 1.49474e-05
          1.49467e-05 1.49462e-05 1.49458e-05 1.49455e-05 1.49453e-05 1.49452e-05 1.49451e-05 1.4945e-05 1.49449e-05 1.49449e-05 1.49449e-05 1.49449e-05
          1.49448e-05 1.49448e-05 1.49448e-05 1.49448e-05 1.49448e-05 1.49448e-05 1.49448e-05 1.49448e-05 1.49448e-05 1.49448e-05 1.49446e-05 1.49501e-05
        </DataArray>
        <DataArray type="Float32" Name="moleFrac_n^H2O" NumberOfComponents="1" format="ascii">
          1.09016e-05 1.09016e-05 1.09016e-05 1.09016e-05 1.09016e-05 1.09016e-05 1.09016e-05 1.09016e-05 1.09017e-05 1.09017e-05 1.09017e-05 1.09017e-05
          1.09017e-05 1.09017e-05 1.09017e-05 1.09017e-05 1.09017e-05 1.09017e-05 1.09017e-05 1.09017e-05 1.09017e-05 1.09017e-05 1.09017e-05 1.09017e-05
          1.09017e-05 1.09017e-05 1.09017e-05 1.09017e-05 1.09017e-05 1.09017e-05 1.09017e-05 1.09017e-05 1.09017e-05 1.09017e-05 1.09017e-05 1.09017e-05
          1.09017e-05 1.09017e-05 1.09017e-05 1.09017e-05 1.09017e-05 1.09017e-05 1.09017e-05 1.09017e-05 1.09017e-05 1.09017e-05 1.09017e-05 1.09017e-05
          1.09017e-05 1.09017e-05 1.09017e-05 1.09017e-05 1.09017e-05 1.09017e-05 1.09017e-05 1.09017e-05 1.09017e-05 1.09017e-05 1.09017e-05 1.09017e-05
          1.09017e-05 1.09017e-05 1.09017e-05 1.09017e-05 1.09017e-05 1.09017e-05 1.09017e-05 1.09017e-05 1.09017e-05 1.09017e-05 1.09017e-05 1.09017e-05
          1.09017e-05 1.09017e-05 1.09017e-05 1.09017e-05 1.09017e-05 1.09017e-05 1.09017e-05 1.09017e-05 1.09017e-05 1.09017e-05 1.09017e-05 1.09017e-05
          1.09017e-05 1.09017e-05 1.09017e-05 1.09017e-05 1.09017e-05 1.09017e-05 1.09017e-05 1.09017e-05 1.09017e-05 1.09017e-05 1.09017e-05 1.09017e-05
          1.09017e-05 1.09017e-05 1.09017e-05 1.09017e-05 1.09017e-05 1.09017e-05 1.09016e-05 1.09016e-05 1.09016e-05 1.09016e-05 1.09017e-05 1.09017e-05