<?xml version="1.0"?>
<VTKFile type="UnstructuredGrid" version="0.1" byte_order="LittleEndian">
  <UnstructuredGrid>
    <Piece NumberOfCells="1536" NumberOfPoints="1617">
      <PointData Scalars="pressure_w">
        <DataArray type="Float32" Name="pressure_w" NumberOfComponents="1" format="ascii">
          153065 152195 151776 150896 151453 150176 150817 149554 150259 149004 149760 148511
          149309 148064 148897 147655 148517 147277 148164 146926 147833 146597 147522 146287
          147226 145993 146944 145712 146674 145443 146413 145183 146161 144931 145916 144686
          145676 144447 145442 144213 145212 143984 144986 143758 144764 143536 144545 143317
          144329 143101 144115 142888 143905 142677 143697 142470 143493 142265 143291 142063
          143092 141864 142896 141668 142705 141476 142519 141287 142326 141092 142128 140892
          141923 140685 141712 140470 141494 140249 141270 140022 141042 139792 140812 139559
          140582 139327 140353 139099 140129 138877 139909 138663 139692 138458 139487 138255
          139150 138089 150200 149466 148806 148219 147692 147216 146781 146381 146012 145667
          145343 145037 144747 144469 144202 143945 143695 143451 143214 142981 142752 142527
          142305 142086 141871 141657 141447 141239 141034 140832 140633 140437 140244 140054
          139858 139656 139447 139231 139008 138781 138550 138318 138087 137861 137642 137432
          137232 137045 136876 148576 147951 147364 146824 146331 145879 145463 145079 144721
          144386 144071 143772 143488 143215 142953 142699 142452 142211 141975 141744 141516
          141292 141071 140853 140637 140424 140214 140006 139801 139598 139399 139202 139009
          138818 138621 138417 138206 137988 137764 137535 137304 137072 136843 136619 136404
          136199 136004 135822 135651 146935 146392 145872 145383 144928 144506 144114 143749
          143407 143086 142782 142493 142217 141951 141695 141445 141202 140965 140732 140503
          140277 140054 139834 139617 139402 139189 138978 138770 138564 138361 138161 137964
          137770 137579 137380 137175 136962 136742 136515 136285 136053 135822 135594 135374
          135163 134962 134773 134594 134424 145284 144808 144347 143907 143493 143103 142738
          142396 142074 141769 141479 141202 140936 140679 140429 140186 139948 139715 139485
          139259 139035 138814 138595 138378 138164 137951 137740 137532 137326 137122 136921
          136723 136528 136337 136137 135929 135713 135490 135262 135030 134797 134567 134342
          134125 133919 133723 133539 133364 133196 143627 143208 142799 142406 142031 141676
          141340 141023 140722 140436 140163 139900 139645 139398 139157 138921 138689 138461
          138235 138012 137790 137571 137354 137138 136924 136711 136500 136291 136084 135880
          135678 135479 135283 135092 134889 134678 134460 134234 134003 133770 133537 133308
          133086 132874 132673 132483 132303 132132 131968 141966 141597 141235 140885 140549
          140229 139924 139633 139357 139091 138836 138589 138348 138112 137881 137652 137427
          137204 136982 136763 136544 136327 136111 135896 135682 135469 135258 135048 134840
          134635 134431 134231 134034 133842 133637 133423 133201 132972 132738 132503 132271
          132044 131826 131620 131425 131241 131067 130900 130740 140303 139979 139660 139350
          139052 138766 138492 138230 137979 137737 137501 137271 137045 136822 136601 136381
          136163 135945 135728 135512 135296 135081 134867 134653 134439 134226 134015 133804
          133594 133387 133182 132980 132782 132588 132380 132162 131935 131703 131467 131231
          131000 130776 130564 130364 130176 129999 129830 129668 129511 138638 138354 138075
          137804 137542 137290 137049 136817 136593 136375 136161 135950 135739 135529 135319
          135109 134897 134686 134474 134261 134048 133835 133622 133409 133196 132983 132770
          132558 132347 132137 131929 131725 131524 131329 131116 130894 130662 130426 130188
          129952 129723 129505 129300 129107 128927 128756 128593 128436 128283 136970 136725
          136483 136248 136021 135804 135595 135395 135200 135009 134819 134627 134434 134237
          134038 133837 133633 133427 133219 133010 132800 132589 132377 132165 131952 131739
          131525 131311 131098 130885 130674 130465 130261 130063 129845 129617 129380 129140
          128900 128666 128442 128231 128034 127850 127677 127513 127356 127204 127054 135302
          135091 134884 134684 134491 134308 134134 133967 133805 133643 133478 133307 133131
          132948 132760 132567 132370 132170 131966 131761 131553 131344 131133 130922 130709
          130495 130280 130064 129848 129631 129416 129202 128993 128790 128565 128329 128087
          127843 127604 127373 127156 126954 126767 126592 126428 126271 126119 125971 125825
          133632 133454 133279 133111 132952 132802 132664 132535 132409 132280 132142 131994
          131834 131664 131486 131301 131111 130915 130716 130513 130308 130100 129891 129679
          129467 129252 129036 128818 128599 128378 128156 127934 127717 127508 127272 127027
          126779 126534 126298 126074 125867 125676 125499 125334 125178 125028 124881 124738
          124596 131961 131812 131668 131530 131401 131286 131185 131098 131017 130926 130819
          130691 130547 130389 130220 130042 129856 129664 129468 129268 129065 128858 128650
          128439 128226 128011 127793 127573 127351 127125 126895 126663 126432 126212 125961
          125706 125454 125211 124982 124770 124575 124397 124232 124077 123928 123784 123644
          123505 123368 130288 130167 130050 129939 129839 129753 129689 129654 129635 129594
          129515 129406 129274 129125 128962 128789 128607 128419 128225 128026 127824 127619
          127411 127200 126987 126772 126553 126332 126106 125875 125638 125393 125139 124893
          124618 124357 124108 123875 123659 123462 123283 123119 122965 122820 122679 122541
          122406 122272 122139 128615 128518 128425 128338 128262 128201 128162 128171 128299
          128299 128240 128143 128019 127874 127715 127544 127365 127178 126985 126788 126587
          126382 126175 125964 125751 125536 125317 125094 124866 124632 124389 124131 123858
          123506 123218 122973 122742 122527 122331 122154 121992 121842 121700 121563 121429
          121298 121168 121039 120910 126940 126865 126794 126728 126671 126627 126600 126587
          126728 126775 126731 126643 126527 126391 126240 126078 125906 125727 125543 125353
          125159 124962 124761 124556 124348 124137 123920 123698 123468 123227 122968 122674
          122271 121907 121757 121560 121362 121175 121005 120849 120704 120568 120436 120307
          120180 120055 119930 119806 119682 125264 125209 125156 125109 125068 125036 125016
          125010 125029 125035 124990 124908 124801 124676 124538 124389 124232 124067 123897
          123722 123542 123358 123169 122977 122779 122576 122367 122148 121917 121667 121389
          121061 120649 120394 120290 120142 119983 119829 119684 119549 119420 119296 119173
          119052 118932 118812 118692 118573 118454 123587 123550 123515 123483 123455 123434
          123419 123413 123394 123349 123283 123196 123092 122974 122845 122708 122564 122413
          122257 122095 121929 121758 121582 121402 121215 121023 120822 120609 120382 120134
          119855 119532 119154 118933 118857 118744 118619 118494 118373 118255 118140 118026
          117913 117799 117684 117570 117455 117340 117225 121909 121890 121871 121853 121837
          121824 121814 121809 121768 121687 121599 121502 121396 121282 121161 121035 120902
          120764 120621 120473 120320 120163 120000 119832 119658 119477 119287 119085 118868
          118630 118364 118062 117720 117523 117463 117375 117276 117174 117072 116969 116865
          116760 116654 116547 116438 116329 116219 116108 115997 120232 120229 120225 120220
          120215 120210 120205 120201 120143 120033 119924 119816 119708 119597 119484 119367
          119246 119121 118991 118856 118716 118572 118423 118268 118108 117940 117764 117576
          117374 117154 116909 116635 116329 116155 116105 116035 115954 115869 115781 115690
          115596 115498 115398 115296 115193 115088 114982 114876 114769 118554 118568 118580
          118589 118594 118595 118594 118590 118517 118378 118249 118132 118021 117915 117810
          117703 117594 117482 117365 117243 117117 116987 116851 116711 116565 116412 116252
          116082 115899 115701 115483 115241 114973 114821 114778 114719 114652 114579 114501
          114418 114331 114240 114146 114049 113950 113849 113747 113644 113541 116878 116910
          116939 116962 116977 116984 116984 116980 116884 116710 116563 116439 116331 116232
          116137 116042 115946 115847 115744 115636 115523 115406 115284 115158 115027 114891
          114749 114599 114440 114269 114082 113875 113646 113515 113477 113426 113367 113302
          113231 113154 113072 112986 112896 112803 112708 112611 112513 112413 112313 115202
          115256 115303 115342 115368 115381 115380 115370 115233 115011 114852 114732 114633
          114545 114463 114383 114302 114217 114127 114032 113933 113829 113722 113611 113496
          113377 113254 113126 112992 112851 112699 112533 112346 112236 112200 112152 112098
          112037 111970 111897 111819 111737 111650 111561 111469 111375 111279 111182 111085
          113529 113607 113677 113734 113774 113792 113784 113768 113491 113246 113108 113006
          112924 112852 112787 112724 112661 112591 112514 112432 112346 112255 112162 112065
          111966 111865 111761 111657 111551 111442 111329 111210 111074 110985 110945 110896
          110843 110784 110718 110647 110571 110491 110407 110321 110231 110140 110047 109953
          109858 111859 111967 112064 112144 112202 112229 112215 112123 111857 111710 111601
          111516 111446 111383 111327 111275 111224 111162 111091 111015 110935 110851 110765
          110676 110584 110491 110398 110306 110215 110124 110032 109939 109847 109771 109709
          109656 109600 109539 109474 109403 109328 109250 109168 109083 108996 108907 108816
          108724 108630 110192 110337 110468 110578 110659 110704 110703 110643 110536 110429
          110341 110266 110201 110141 110085 110029 109970 109901 109822 109739 109651 109560
          109467 109373 109278 109184 109095 109012 108933 108856 108781 108706 108630 108557
          108491 108429 108366 108302 108235 108164 108089 108012 107931 107848 107763 107675
          107586 107495 107404 108530 108721 108895 109040 109151 109222 109251 109237 109190
          109130 109067 109007 108950 108895 108841 108786 108728 108658 108581 108497 108411
          108321 108230 108137 108043 107951 107864 107782 107704 107629 107554 107481 107408
          107337 107268 107202 107136 107069 107000 106928 106853 106776 106697 106615 106532
          106446 106358 106268 106177 106875 107125 107350 107537 107682 107784 107844 107866
          107857 107829 107790 107746 107698 107649 107598 107545 107488 107419 107342 107259
          107173 107085 106995 106902 106809 106718 106633 106553 106476 106402 106328 106256
          106184 106113 106044 105975 105907 105838 105767 105695 105620 105544 105465 105385
          105302 105218 105132 105042 104951 105230 105557 105843 106077 106258 106389 106476
          106525 106543 106538 106518 106486 106448 106404 106357 106306 106251 106182 106105
          106023 105938 105851 105761 105669 105576 105486 105403 105324 105249 105175 105102
          105030 104959 104888 104818 104748 104679 104608 104537 104464 104389 104313 104235
          104156 104075 103993 103908 103820 103726 103605 104036 104391 104670 104883 105039
          105148 105216 105252 105263 105255 105233 105202 105163 105119 105070 105016 104948
          104871 104790 104706 104619 104529 104438 104345 104256 104174 104097 104022 103949
          103877 103805 103734 103663 103592 103522 103451 103380 103308 103234 103160 103084
          103007 102928 102849 102769 102688 102602 102505 102027 102603 103016 103328 103563
          103737 103859 103939 103986 104006 104006 103990 103963 103927 103885 103838 103785
          103717 103640 103559 103475 103389 103300 103209 103116 103026 102946 102870 102796
          102723 102651 102579 102508 102437 102366 102295 102224 102152 102080 102006 101932
          101856 101779 101702 101624 101546 101471 101400 101296 100738 101303 101737 102062
          102306 102485 102612 102696 102746 102770 102772 102758 102732 102698 102656 102609
          102557 102489 102412 102332 102248 102161 102072 101981 101888 101798 101720 101644
          101570 101497 101425 101353 101282 101211 101140 101069 100997 100926 100853 100780
          100705 100629 100553 100475 100398 100322 100249 100192 100237
        </DataArray>
        <DataArray type="Float32" Name="pressure_n" NumberOfComponents="1" format="ascii">
          153065 152195 151776 150896 151453 150176 150817 149554 150259 149004 149760 148511
          149309 148064 148897 147655 148517 147277 148164 146926 147833 146597 147522 146287
          147226 145993 146944 145712 146674 145443 146413 145183 146161 144931 145916 144686
          145676 144447 145442 144213 145212 143984 144986 143758 144764 143536 144545 143317
          144329 143101 144115 142888 143905 142677 143697 142470 143493 142265 143291 142063
          143092 141864 142896 141668 142705 141476 142634 141368 142465 141203 142286 141016
          142099 140820 141902 140614 141698 140400 141487 140179 141271 139952 141052 139722
          140832 139491 140614 139263 140398 139039 140184 138821 139969 138609 139744 138399
          139368 138215 150200 149466 148806 148219 147692 147216 146781 146381 146012 145667
          145343 145037 144747 144469 144202 143945 143695 143451 143214 142981 142752 142527
          142305 142086 141871 141657 141447 141239 141034 140832 140633 140437 140244 140140
          139971 139782 139584 139376 139160 138937 138709 138478 138248 138020 137798 137582
          137375 137180 136994 148576 147951 147364 146824 146331 145879 145463 145079 144721
          144386 144071 143772 143488 143215 142953 142699 142452 142211 141975 141744 141516
          141292 141071 140853 140637 140424 140214 140006 139801 139598 139399 139202 139009
          138911 138737 138546 138346 138136 137918 137693 137464 137233 137003 136777 136557
          136346 136144 135953 135766 146935 146392 145872 145383 144928 144506 144114 143749
          143407 143086 142782 142493 142217 141951 141695 141445 141202 140965 140732 140503
          140277 140054 139834 139617 139402 139189 138978 138770 138564 138361 138161 137964
          137770 137679 137500 137307 137104 136892 136671 136445 136215 135984 135755 135530
          135314 135106 134908 134720 134535 145284 144808 144347 143907 143493 143103 142738
          142396 142074 141769 141479 141202 140936 140679 140429 140186 139948 139715 139485
          139259 139035 138814 138595 138378 138164 137951 137740 137532 137326 137122 136921
          136723 136528 136442 136260 136065 135859 135643 135420 135191 134960 134729 134501
          134280 134067 133864 133670 133485 133302 143627 143208 142799 142406 142031 141676
          141340 141023 140722 140436 140163 139900 139645 139398 139157 138921 138689 138461
          138235 138012 137790 137571 137354 137138 136924 136711 136500 136291 136084 135880
          135678 135479 135283 135200 135016 134818 134609 134390 134164 133933 133700 133470
          133244 133026 132817 132619 132429 132248 132067 141966 141597 141235 140885 140549
          140229 139924 139633 139357 139091 138836 138589 138348 138112 137881 137652 137427
          137204 136982 136763 136544 136327 136111 135896 135682 135469 135258 135048 134840
          134635 134431 134231 134034 133954 133767 133566 133353 133130 132901 132668 132435
          132205 131983 131769 131566 131372 131188 131010 130828 140303 139979 139660 139350
          139052 138766 138492 138230 137979 137737 137501 137271 137045 136822 136601 136381
          136163 135945 135728 135512 135296 135081 134867 134653 134439 134226 134015 133804
          133594 133387 133182 132980 132782 132704 132514 132308 132091 131864 131631 131396
          131163 130936 130718 130510 130312 130124 129945 129771 129586 138638 138354 138075
          137804 137542 137290 137049 136817 136593 136375 136161 135950 135739 135529 135319
          135109 134897 134686 134474 134261 134048 133835 133622 133409 133196 132983 132770
          132558 132347 132137 131929 131725 131524 131449 131255 131044 130821 130590 130354
          130118 129886 129663 129450 129248 129057 128875 128701 128527 128343 136970 136725
          136483 136248 136021 135804 135595 135395 135200 135009 134819 134627 134434 134237
          134038 133837 133633 133427 133219 133010 132800 132589 132377 132165 131952 131739
          131525 131311 131098 130885 130674 130465 130261 130188 129988 129771 129542 129306
          129068 128832 128603 128385 128179 127985 127801 127626 127455 127278 127100 135302
          135091 134884 134684 134491 134308 134134 133967 133805 133643 133478 133307 133131
          132948 132760 132567 132370 132170 131966 131761 131553 131344 131133 130922 130709
          130495 130280 130064 129848 129631 129416 129202 128993 128920 128713 128488 128252
          128012 127772 127538 127315 127104 126906 126720 126544 126375 126202 126028 125858
          133632 133454 133279 133111 132952 132802 132664 132535 132409 132280 132142 131994
          131834 131664 131486 131301 131111 130915 130716 130513 130308 130100 129891 129679
          129467 129252 129036 128818 128599 128378 128156 127934 127717 127643 127425 127190
          126948 126705 126466 126237 126022 125821 125632 125455 125286 125118 124946 124778
          124617 131961 131812 131668 131530 131401 131286 131185 131098 131017 130926 130819
          130691 130547 130389 130220 130042 129856 129664 129468 129268 129065 128858 128650
          128439 128226 128011 127793 127573 127351 127125 126895 126663 126432 126353 126119
          125874 125626 125383 125150 124930 124725 124535 124357 124189 124026 123856 123689
          123530 123379 130288 130167 130050 129939 129839 129753 129689 129654 129635 129594
          129515 129406 129274 129125 128962 128789 128607 128419 128225 128026 127824 127619
          127411 127200 126987 126772 126553 126332 126106 125875 125638 125393 125139 125041
          124783 124529 124283 124047 123824 123617 123426 123249 123082 122923 122758 122593
          122435 122285 122144 128615 128518 128425 128338 128262 128201 128162 128171 128299
          128299 128240 128143 128019 127874 127715 127544 127365 127178 126985 126788 126587
          126382 126175 125964 125751 125536 125317 125094 124866 124632 124389 124131 123858
          123665 123392 123151 122918 122697 122492 122302 122127 121963 121808 121649 121487
          121332 121184 121044 120911 126940 126865 126794 126728 126671 126627 126600 126587
          126728 126775 126731 126643 126527 126391 126240 126078 125906 125727 125543 125353
          125159 124962 124761 124556 124348 124137 123920 123698 123468 123227 122968 122674
          122271 122088 121941 121741 121537 121341 121158 120989 120830 120679 120529 120372
          120219 120074 119937 119807 119682 125264 125209 125156 125109 125068 125036 125016
          125010 125029 125035 124990 124908 124801 124676 124538 124389 124232 124067 123897
          123722 123542 123358 123169 122977 122779 122576 122367 122148 121917 121667 121389
          121061 120649 120583 120477 120324 120155 119988 119829 119679 119535 119395 119245
          119096 118955 118821 118694 118573 118454 123587 123550 123515 123483 123455 123434
          123419 123413 123394 123349 123283 123196 123092 122974 122845 122708 122564 122413
          122257 122095 121929 121758 121582 121402 121215 121023 120822 120609 120382 120134
          119855 119532 119154 119126 119045 118923 118785 118645 118508 118375 118245 118106
          117963 117826 117695 117572 117455 117340 117225 121909 121890 121871 121853 121837
          121824 121814 121809 121768 121687 121599 121502 121396 121282 121161 121035 120902
          120764 120621 120473 120320 120163 120000 119832 119658 119477 119287 119085 118868
          118630 118364 118062 117722 117719 117650 117549 117435 117316 117197 117079 116953
          116818 116686 116561 116442 116329 116219 116108 115997 120232 120229 120225 120220
          120215 120210 120205 120201 120143 120033 119924 119816 119708 119597 119484 119367
          119246 119121 118991 118856 118716 118572 118423 118268 118108 117940 117764 117576
          117374 117154 116909 116635 116355 116352 116291 116204 116105 116002 115897 115788
          115663 115538 115417 115302 115194 115088 114982 114876 114769 118554 118568 118580
          118589 118594 118595 118594 118590 118517 118378 118249 118132 118021 117915 117810
          117703 117594 117482 117365 117243 117117 116987 116851 116711 116565 116412 116252
          116082 115899 115701 115483 115241 115022 115019 114961 114883 114796 114703 114608
          114498 114379 114264 114155 114050 113950 113849 113747 113644 113541 116878 116910
          116939 116962 116977 116984 116984 116980 116884 116710 116563 116439 116331 116232
          116137 116042 115946 115847 115744 115636 115523 115407 115285 115159 115029 114893
          114751 114602 114443 114273 114088 113884 113757 113715 113657 113584 113503 113418
          113325 113214 113104 112999 112899 112804 112708 112611 112513 112413 112313 115202
          115256 115303 115342 115368 115381 115380 115370 115233 115011 114852 114732 114633
          114551 114494 114435 114374 114303 114226 114144 114056 113965 113870 113771 113667
          113560 113450 113337 113219 113098 112971 112837 112885 112435 112377 112304 112225
          112144 112044 111937 111837 111742 111651 111561 111469 111375 111279 111182 111085
          113529 113607 113677 113734 113774 113792 113784 113768 113491 113246 113108 113006
          112989 113173 113243 113215 113204 113165 113112 113050 112981 112908 112830 112749
          112663 112574 112484 112393 112301 112208 112114 112017 112079 111186 111118 111039
          110960 110873 110768 110670 110579 110492 110408 110321 110231 110140 110047 109953
          109858 111859 111967 112064 112144 112202 112229 112215 112123 111857 111710 111601
          111516 111487 111456 111437 111426 111414 111375 111322 111259 111191 111118 111040
          110959 110873 110784 110694 110603 110511 110418 110324 110227 110095 109981 109874
          109786 109702 109596 109498 109411 109330 109250 109168 109083 108996 108907 108816
          108724 108630 110192 110337 110468 110578 110659 110704 110703 110643 110536 110429
          110341 110266 110201 110141 110119 110119 110110 110055 109983 109902 109816 109727
          109635 109541 109443 109341 109241 109143 109050 108959 108857 108752 108653 108565
          108492 108429 108366 108302 108235 108164 108089 108012 107931 107848 107763 107675
          107586 107495 107404 108530 108721 108895 109040 109151 109222 109251 109237 109190
          109130 109067 109007 108950 108895 108873 108874 108867 108811 108739 108657 108571
          108482 108391 108297 108199 108097 107996 107899 107805 107700 107596 107500 107413
          107337 107268 107202 107136 107069 107000 106928 106853 106776 106697 106615 106532
          106446 106358 106268 106177 106875 107125 107350 107537 107682 107784 107844 107866
          107857 107829 107790 107746 107698 107649 107630 107633 107629 107573 107500 107419
          107334 107246 107155 107062 106964 106861 106761 106664 106565 106458 106357 106267
          106186 106113 106044 105975 105907 105838 105767 105695 105620 105544 105465 105385
          105302 105218 105132 105042 104951 105230 105557 105843 106077 106258 106389 106476
          106525 106543 106538 106518 106486 106448 106404 106388 106394 106393 106338 106265
          106184 106099 106012 105922 105830 105730 105626 105525 105429 105323 105216 105121
          105036 104959 104888 104818 104748 104679 104608 104537 104464 104389 104313 104235
          104156 104075 103993 103908 103820 103726 103605 104036 104391 104670 104883 105039
          105148 105216 105252 105263 105255 105233 105202 105163 105147 105159 105160 105105
          105031 104951 104866 104780 104690 104598 104498 104391 104290 104189 104077 103975
          103886 103806 103734 103663 103592 103522 103451 103380 103308 103234 103160 103084
          103007 102928 102849 102769 102688 102602 102505 102027 102603 103016 103328 103563
          103737 103859 103939 103986 104006 104006 103990 103963 103927 103908 103925 103930
          103876 103801 103720 103636 103550 103461 103369 103267 103155 103052 102937 102828
          102735 102654 102579 102508 102437 102366 102295 102224 102152 102080 102006 101932
          101856 101779 101702 101624 101546 101471 101400 101296 100738 101303 101737 102062
          102306 102485 102612 102696 102746 102770 102772 102758 102732 102698 102667 102684
          102704 102649 102573 102493 102409 102322 102233 102142 102037 101913 101788 101669
          101577 101498 101425 101353 101282 101211 101140 101069 100997 100926 100853 100780
          100705 100629 100553 100475 100398 100322 100249 100192 100237
        </DataArray>
        <DataArray type="Float32" Name="density_w" NumberOfComponents="1" format="ascii">
          1000 1000 1000 1000 1000 1000 1000 1000 1000 1000 1000 1000
          1000 1000 1000 1000 1000 1000 1000 1000 1000 1000 1000 1000
          1000 1000 1000 1000 1000 1000 1000 1000 1000 1000 1000 1000
          1000 1000 1000 1000 1000 1000 1000 1000 1000 1000 1000 1000
          1000 1000 1000 1000 1000 1000 1000 1000 1000 1000 1000 1000
          1000 1000 1000 1000 1000 1000 1000 1000 1000 1000 1000 1000
          1000 1000 1000 1000 1000 1000 1000 1000 1000 1000 1000 1000
          1000 1000 1000 1000 1000 1000 1000 1000 1000 1000 1000 1000
          1000 1000 1000 1000 1000 1000 1000 1000 1000 1000 1000 1000
          1000 1000 1000 1000 1000 1000 1000 1000 1000 1000 1000 1000
          1000 1000 1000 1000 1000 1000 1000 1000 1000 1000 1000 1000
          1000 1000 1000 1000 1000 1000 1000 1000 1000 1000 1000 1000
          1000 1000 1000 1000 1000 1000 1000 1000 1000 1000 1000 1000
          1000 1000 1000 1000 1000 1000 1000 1000 1000 1000 1000 1000
          1000 1000 1000 1000 1000 1000 1000 1000 1000 1000 1000 1000
          1000 1000 1000 1000 1000 1000 1000 1000 1000 1000 1000 1000
          1000 1000 1000 1000 1000 1000 1000 1000 1000 1000 1000 1000
          1000 1000 1000 1000 1000 1000 1000 1000 1000 1000 1000 1000
          1000 1000 1000 1000 1000 1000 1000 1000 1000 1000 1000 1000
          1000 1000 1000 1000 1000 1000 1000 1000 1000 1000 1000 1000
          1000 1000 1000 1000 1000 1000 1000 1000 1000 1000 1000 1000
          1000 1000 1000 1000 1000 1000 1000 1000 1000 1000 1000 1000
          1000 1000 1000 1000 1000 1000 1000 1000 1000 1000 1000 1000
          1000 1000 1000 1000 1000 1000 1000 1000 1000 1000 1000 1000
          1000 1000 1000 1000 1000 1000 1000 1000 1000 1000 1000 1000
          1000 1000 1000 1000 1000 1000 1000 1000 1000 1000 1000 1000
          1000 1000 1000 1000 1000 1000 1000 1000 1000 1000 1000 1000
          1000 1000 1000 1000 1000 1000 1000 1000 1000 1000 1000 1000
          1000 1000 1000 1000 1000 1000 1000 1000 1000 1000 1000 1000
          1000 1000 1000 1000 1000 1000 1000 1000 1000 1000 1000 1000
          1000 1000 1000 1000 1000 1000 1000 1000 1000 1000 1000 1000
          1000 1000 1000 1000 1000 1000 1000 1000 1000 1000 1000 1000
          1000 1000 1000 1000 1000 1000 1000 1000 1000 1000 1000 1000
          1000 1000 1000 1000 1000 1000 1000 1000 1000 1000 1000 1000
          1000 1000 1000 1000 1000 1000 1000 1000 1000 1000 1000 1000
          1000 1000 1000 1000 1000 1000 1000 1000 1000 1000 1000 1000
          1000 1000 1000 1000 1000 1000 1000 1000 1000 1000 1000 1000
          1000 1000 1000 1000 1000 1000 1000 1000 1000 1000 1000 1000
          1000 1000 1000 1000 1000 1000 1000 1000 1000 1000 1000 1000
          1000 1000 1000 1000 1000 1000 1000 1000 1000 1000 1000 1000
          1000 1000 1000 1000 1000 1000 1000 1000 1000 1000 1000 1000
          1000 1000 1000 1000 1000 1000 1000 1000 1000 1000 1000 1000
          1000 1000 1000 1000 1000 1000 1000 1000 1000 1000 1000 1000
          1000 1000 1000 1000 1000 1000 1000 1000 1000 1000 1000 1000
          1000 1000 1000 1000 1000 1000 1000 1000 1000 1000 1000 1000
          1000 1000 1000 1000 1000 1000 1000 1000 1000 1000 1000 1000
          1000 1000 1000 1000 1000 1000 1000 1000 1000 1000 1000 1000
          1000 1000 1000 1000 1000 1000 1000 1000 1000 1000 1000 1000
          1000 1000 1000 1000 1000 1000 1000 1000 1000 1000 1000 1000
          1000 1000 1000 1000 1000 1000 1000 1000 1000 1000 1000 1000
          1000 1000 1000 1000 1000 1000 1000 1000 1000 1000 1000 1000
          1000 1000 1000 1000 1000 1000 1000 1000 1000 1000 1000 1000
          1000 1000 1000 1000 1000 1000 1000 1000 1000 1000 1000 1000
          1000 1000 1000 1000 1000 1000 1000 1000 1000 1000 1000 1000
          1000 1000 1000 1000 1000 1000 1000 1000 1000 1000 1000 1000
          1000 1000 1000 1000 1000 1000 1000 1000 1000 1000 1000 1000
          1000 1000 1000 1000 1000 1000 1000 1000 1000 1000 1000 1000
          1000 1000 1000 1000 1000 1000 1000 1000 1000 1000 1000 1000
          1000 1000 1000 1000 1000 1000 1000 1000 1000 1000 1000 1000