<?xml version="1.0"?>
<VTKFile type="UnstructuredGrid" version="0.1" byte_order="LittleEndian">
  <UnstructuredGrid>
    <Piece NumberOfCells="1536" NumberOfPoints="1617">
      <CellData Scalars="pressure_wetting" Vectors="intrinsicPerm[0]">
        <DataArray type="Float32" Name="pressure_wetting" NumberOfComponents="1" format="ascii">
          152035 151187 150476 149859 149312 148819 148370 147957 147574 147216 146880 146562
          146259 145969 145691 145421 145160 144905 144657 144413 144174 143939 143707 143478
          143253 143030 142809 142592 142377 142164 141954 141747 141543 141341 141143 140947
          140755 140565 140379 140195 140014 139835 139658 139483 139310 139138 138967 138797
          150579 149823 149156 148564 148032 147549 147108 146701 146323 145969 145636 145320
          145020 144732 144455 144187 143927 143673 143425 143183 142944 142709 142478 142249
          142024 141801 141581 141363 141148 140935 140725 140518 140314 140112 139913 139718
          139526 139336 139150 138966 138785 138606 138430 138255 138082 137911 137740 137570
          149034 148370 147762 147207 146701 146238 145811 145416 145047 144701 144374 144064
          143768 143484 143210 142945 142687 142435 142189 141948 141710 141476 141245 141017
          140792 140569 140349 140131 139916 139704 139493 139286 139081 138880 138681 138486
          138293 138104 137918 137734 137554 137376 137200 137026 136854 136683 136513 136343
          147447 146862 146313 145802 145329 144890 144483 144104 143748 143413 143095 142793
          142504 142226 141957 141695 141441 141192 140948 140709 140473 140240 140010 139783
          139558 139335 139115 138898 138682 138469 138259 138051 137846 137645 137446 137250
          137058 136869 136683 136500 136320 136143 135968 135795 135623 135453 135284 135116
          145837 145320 144825 144359 143921 143512 143128 142768 142429 142107 141802 141510
          141229 140958 140695 140439 140189 139944 139703 139466 139232 139001 138772 138546
          138321 138099 137879 137661 137446 137233 137022 136814 136609 136406 136207 136012
          135819 135630 135445 135263 135084 134908 134734 134562 134392 134223 134056 133889
          144213 143754 143310 142887 142486 142107 141749 141411 141091 140786 140495 140215
          139944 139682 139427 139177 138933 138692 138455 138220 137988 137759 137532 137306
          137083 136861 136641 136423 136207 135993 135782 135573 135368 135165 134965 134769
          134577 134389 134204 134023 133845 133670 133498 133327 133159 132992 132826 132661
          142581 142172 141775 141393 141028 140681 140351 140037 139738 139452 139176 138910
          138652 138400 138153 137911 137672 137436 137203 136972 136743 136515 136289 136065
          135842 135621 135401 135182 134966 134752 134540 134330 134124 133920 133720 133523
          133331 133143 132959 132780 132603 132430 132260 132091 131925 131760 131596 131432
          140942 140579 140225 139882 139553 139237 138936 138648 138372 138106 137848 137598
          137353 137112 136875 136640 136408 136178 135949 135722 135495 135270 135046 134822
          134600 134379 134159 133940 133723 133508 133295 133084 132877 132672 132471 132273
          132081 131893 131711 131533 131358 131187 131019 130853 130689 130526 130365 130204
          139298 138977 138663 138358 138063 137780 137508 137248 136996 136752 136514 136280
          136049 135821 135594 135368 135143 134918 134694 134470 134247 134024 133801 133579
          133357 133136 132915 132696 132478 132261 132047 131835 131627 131421 131218 131019
          130825 130639 130458 130282 130110 129942 129776 129613 129452 129292 129133 128975
          137652 137369 137092 136822 136562 136311 136070 135838 135612 135392 135175 134959
          134744 134528 134312 134094 133876 133658 133438 133218 132998 132777 132556 132335
          132113 131892 131671 131451 131231 131013 130797 130584 130374 130166 129960 129758
          129564 129379 129200 129027 128859 128693 128531 128371 128213 128056 127901 127745
          136002 135755 135513 135278 135051 134833 134623 134421 134224 134029 133834 133637
          133438 133236 133030 132822 132611 132398 132183 131967 131749 131531 131311 131090
          130869 130648 130426 130204 129983 129762 129544 129328 129117 128906 128696 128491
          128296 128112 127937 127768 127603 127442 127284 127128 126973 126820 126668 126516
          134350 134136 133928 133726 133531 133346 133169 132999 132833 132666 132495 132319
          132136 131947 131752 131552 131348 131140 130930 130717 130502 130285 130067 129847
          129626 129404 129181 128958 128734 128510 128288 128069 127856 127640 127424 127216
          127021 126839 126669 126505 126345 126188 126034 125882 125732 125582 125434 125286
          132695 132513 132336 132165 132003 131850 131707 131573 131442 131307 131162 131007
          130840 130663 130478 130286 130088 129886 129679 129469 129256 129041 128824 128605
          128384 128161 127937 127711 127484 127256 127028 126804 126586 126362 126141 125931
          125737 125560 125395 125237 125083 124932 124783 124635 124489 124344 124200 124056
          131038 130886 130738 130597 130465 130344 130237 130143 130056 129958 129841 129705
          129553 129388 129212 129026 128833 128635 128431 128224 128013 127799 127583 127364
          127143 126920 126695 126466 126236 126002 125766 125531 125304 125069 124843 124633
          124444 124274 124116 123965 123818 123673 123530 123387 123246 123105 122965 122825
          129379 129254 129133 129019 128915 128825 128753 128706 128682 128627 128538 128420
          128281 128124 127954 127773 127585 127389 127188 126982 126773 126560 126344 126126
          125905 125681 125455 125224 124990 124750 124503 124250 123999 123750 123524 123321
          123142 122982 122833 122691 122551 122413 122275 122138 122002 121866 121730 121595
          127718 127618 127521 127432 127352 127287 127245 127244 127340 127331 127263 127157
          127025 126873 126707 126529 126342 126148 125949 125744 125536 125323 125108 124890
          124669 124445 124218 123987 123749 123504 123247 122967 122641 122391 122180 121994
          121831 121685 121548 121415 121283 121151 121020 120889 120757 120626 120495 120364
          126055 125977 125903 125834 125774 125727 125696 125687 125794 125816 125761 125664
          125540 125396 125238 125068 124890 124705 124514 124318 124118 123913 123706 123495
          123280 123061 122837 122606 122365 122107 121815 121440 121111 120972 120812 120658
          120517 120387 120262 120139 120015 119890 119765 119639 119513 119387 119260 119134
          124390 124333 124278 124228 124184 124150 124126 124116 124126 124103 124038 123942
          123824 123691 123545 123391 123228 123059 122884 122704 122519 122330 122137 121940
          121738 121529 121314 121087 120845 120578 120271 119896 119653 119564 119446 119322
          119204 119090 118977 118863 118747 118629 118510 118390 118269 118147 118025 117903
          122724 122686 122649 122615 122585 122561 122544 122534 122503 122432 122344 122241
          122124 121998 121863 121721 121573 121418 121259 121094 120925 120751 120573 120390
          120201 120005 119801 119584 119350 119091 118796 118452 118250 118186 118096 117996
          117897 117797 117695 117589 117481 117369 117256 117141 117025 116908 116790 116672
          121057 121037 121018 120999 120981 120965 120952 120945 120888 120778 120667 120552
          120435 120313 120187 120057 119923 119783 119639 119489 119336 119177 119014 118846
          118672 118491 118300 118098 117879 117638 117368 117062 116888 116838 116765 116684
          116599 116510 116417 116319 116217 116111 116003 115893 115782 115669 115556 115442
          119390 119389 119386 119381 119374 119366 119357 119350 119271 119126 118992 118868
          118749 118633 118516 118399 118278 118153 118023 117889 117751 117607 117460 117307
          117149 116985 116812 116629 116432 116216 115976 115709 115557 115515 115454 115385
          115311 115231 115145 115053 114956 114856 114753 114648 114540 114432 114322 114212
          117724 117742 117757 117766 117769 117766 117759 117751 117644 117461 117308 117177
          117060 116952 116847 116743 116637 116527 116413 116294 116170 116042 115910 115774
          115633 115487 115334 115174 115002 114816 114611 114383 114254 114215 114162 114101
          114033 113959 113879 113792 113700 113604 113505 113403 113300 113195 113089 112983
          116060 116099 116132 116157 116170 116172 116162 116147 115993 115767 115602 115473
          115364 115267 115177 115089 115001 114906 114807 114702 114594 114481 114365 114245
          114122 113995 113865 113730 113587 113436 113270 113084 112975 112937 112888 112830
          112767 112696 112619 112536 112447 112355 112259 112161 112061 111959 111857 111753
          114399 114462 114517 114558 114583 114588 114571 114535 114264 114014 113860 113747
          113655 113576 113504 113437 113369 113291 113206 113115 113021 112924 112823 112720
          112615 112508 112400 112292 112182 112069 111949 111814 111722 111680 111629 111573
          111510 111441 111366 111284 111199 111109 111016 110921 110823 110725 110625 110524
          112743 112834 112914 112976 113016 113027 112997 112899 112636 112469 112350 112256
          112177 112108 112047 111991 111938 111867 111788 111704 111617 111527 111435 111340
          111243 111146 111050 110956 110864 110773 110681 110589 110502 110443 110387 110327
          110263 110193 110118 110038 109954 109866 109775 109682 109587 109491 109394 109295
          111093 111218 111328 111417 111478 111506 111492 111426 111299 111184 111087 111004
          110931 110865 110804 110744 110681 110603 110517 110428 110335 110240 110143 110045
          109946 109851 109762 109678 109598 109520 109444 109366 109289 109221 109157 109091
          109023 108951 108875 108796 108712 108626 108537 108446 108353 108259 108163 108067
          109451 109618 109764 109884 109973 110026 110040 110013 109952 109880 109809 109742
          109679 109618 109559 109500 109437 109359 109274 109186 109094 109000 108905 108808
          108711 108618 108530 108448 108369 108293 108217 108142 108068 107997 107928 107858
          107787 107713 107637 107557 107474 107389 107301 107211 107120 107027 106933 106839
          107820 108037 108227 108384 108504 108585 108628 108636 108614 108575 108528 108476
          108423 108369 108314 108257 108195 108118 108034 107946 107856 107763 107669 107573
          107476 107385 107299 107218 107141 107066 106991 106917 106843 106770 106699 106627
          106554 106478 106401 106321 106238 106154 106067 105978 105888 105797 105704 105611
          106204 106483 106723 106920 107073 107182 107252 107287 107293 107279 107250 107213
          107169 107121 107070 107015 106956 106879 106796 106709 106620 106528 106434 106339
          106243 106153 106069 105990 105914 105839 105765 105691 105617 105544 105470 105397
          105322 105246 105168 105087 105005 104921 104835 104747 104658 104567 104476 104384
          104613 104967 105263 105501 105684 105819 105912 105967 105993 105996 105982 105955
          105919 105877 105829 105777 105719 105642 105560 105475 105386 105295 105202 105107
          105011 104923 104841 104763 104687 104613 104538 104464 104390 104316 104242 104168
          104092 104015 103936 103856 103774 103690 103604 103517 103428 103338 103248 103157
          103065 103509 103861 104136 104345 104499 104608 104678 104717 104731 104725 104706
          104676 104637 104592 104542 104485 104409 104328 104243 104155 104064 103971 103876
          103780 103693 103613 103536 103461 103386 103312 103238 103164 103089 103015 102940
          102863 102786 102707 102626 102544 102460 102375 102288 102200 102111 102021 101930
          101608 102143 102538 102836 103060 103225 103342 103419 103465 103484 103484 103468
          103440 103404 103360 103311 103255 103179 103098 103013 102926 102835 102743 102648
          102551 102466 102386 102310 102234 102160 102086 102012 101937 101863 101788 101712
          101636 101558 101479 101399 101316 101233 101147 101061 100973 100884 100794 100704
        </DataArray>
        <DataArray type="Float32" Name="pressure_nonwetting" NumberOfComponents="1" format="ascii">
          152035 151187 150476 149859 149312 148819 148370 147957 147574 147216 146880 146562
          146259 145969 145691 145421 145160 144905 144657 144413 144174 143939 143707 143478
          143253 143030 142809 142592 142377 142164 141954 141747 141543 141341 141143 140947
          140755 140565 140379 140195 140014 139835 139658 139483 139310 139138 138967 138797
          150579 149823 149156 148564 148032 147549 147108 146701 146323 145969 145636 145320
          145020 144732 144455 144187 143927 143673 143425 143183 142944 142709 142478 142249
          142024 141801 141581 141363 141148 140935 140725 140518 140314 140112 139913 139718
          139526 139336 139150 138966 138785 138606 138430 138255 138082 137911 137740 137570
          149034 148370 147762 147207 146701 146238 145811 145416 145047 144701 144374 144064
          143768 143484 143210 142945 142687 142435 142189 141948 141710 141476 141245 141017
          140792 140569 140349 140131 139916 139704 139493 139286 139081 138880 138681 138486
          138293 138104 137918 137734 137554 137376 137200 137026 136854 136683 136513 136343
          147447 146862 146313 145802 145329 144890 144483 144104 143748 143413 143095 142793
          142504 142226 141957 141695 141441 141192 140948 140709 140473 140240 140010 139783
          139558 139335 139115 138898 138682 138469 138259 138051 137846 137645 137446 137250
          137058 136869 136683 136500 136320 136143 135968 135795 135623 135453 135284 135116
          145837 145320 144825 144359 143921 143512 143128 142768 142429 142107 141802 141510
          141229 140958 140695 140439 140189 139944 139703 139466 139232 139001 138772 138546
          138321 138099 137879 137661 137446 137233 137022 136814 136609 136406 136207 136012
          135819 135630 135445 135263 135084 134908 134734 134562 134392 134223 134056 133889
          144213 143754 143310 142887 142486 142107 141749 141411 141091 140786 140495 140215
          139944 139682 139427 139177 138933 138692 138455 138220 137988 137759 137532 137306
          137083 136861 136641 136423 136207 135993 135782 135573 135368 135165 134965 134769
          134577 134389 134204 134023 133845 133670 133498 133327 133159 132992 132826 132661
          142581 142172 141775 141393 141028 140681 140351 140037 139738 139452 139176 138910
          138652 138400 138153 137911 137672 137436 137203 136972 136743 136515 136289 136065
          135842 135621 135401 135182 134966 134752 134540 134330 134124 133920 133720 133523
          133331 133143 132959 132780 132603 132430 132260 132091 131925 131760 131596 131432
          140942 140579 140225 139882 139553 139237 138936 138648 138372 138106 137848 137598
          137353 137112 136875 136640 136408 136178 135949 135722 135495 135270 135046 134822
          134600 134379 134159 133940 133723 133508 133295 133084 132877 132672 132472 132274
          132081 131893 131711 131533 131358 131187 131019 130853 130689 130526 130365 130204
          139298 138977 138663 138358 138063 137780 137508 137248 136996 136752 136514 136280
          136049 135821 135594 135368 135143 134918 134694 134470 134247 134024 133801 133579
          133357 133136 132915 132696 132478 132261 132047 131835 131627 131428 131231 131024
          130826 130639 130458 130282 130110 129942 129776 129613 129452 129292 129133 128975
          137652 137369 137092 136822 136562 136311 136070 135838 135612 135392 135175 134959
          134744 134528 134312 134094 133876 133658 133438 133218 132998 132777 132556 132335
          132113 131892 131671 131451 131231 131013 130797 130584 130381 130206 130012 129792
          129571 129379 129200 129027 128859 128693 128531 128371 128213 128056 127901 127745
          136002 135755 135513 135278 135051 134833 134623 134421 134224 134029 133834 133637
          133438 133236 133030 132822 132611 132398 132183 131967 131749 131531 131311 131090
          130869 130648 130426 130204 129983 129762 129544 129328 129156 128993 128792 128569
          128329 128115 127937 127768 127603 127442 127284 127128 126973 126820 126668 126516
          134350 134136 133928 133726 133531 133346 133169 132999 132833 132666 132495 132319
          132136 131947 131752 131552 131348 131140 130930 130717 130502 130285 130067 129847
          129626 129404 129181 128958 128734 128510 128288 128069 127941 127750 127538 127322
          127088 126853 126669 126505 126345 126188 126034 125882 125732 125582 125434 125286
          132695 132513 132336 132165 132003 131850 131707 131573 131442 131307 131162 131007
          130840 130663 130478 130286 130088 129886 129679 129469 129256 129041 128824 128605
          128384 128161 127937 127711 127484 127256 127028 126804 126697 126486 126266 126048
          125830 125591 125396 125237 125083 124932 124783 124635 124489 124344 124200 124056
          131038 130886 130738 130597 130465 130344 130237 130143 130056 129958 129841 129705
          129553 129388 129212 129026 128833 128635 128431 128224 128013 127799 127583 127364
          127143 126920 126695 126466 126236 126002 125766 125531 125428 125204 124977 124758
          124549 124319 124120 123965 123818 123673 123530 123387 123246 123105 122965 122825
          129379 129254 129133 129019 128915 128825 128753 128706 128682 128627 128538 128420
          128281 128124 127954 127773 127585 127389 127188 126982 126773 126560 126344 126126
          125905 125681 125455 125224 124990 124750 124503 124250 124134 123895 123666 123452
          123251 123034 122838 122691 122551 122413 122275 122138 122002 121866 121730 121595
          127718 127618 127521 127432 127352 127287 127245 127244 127340 127331 127263 127157
          127025 126873 126707 126529 126342 126148 125949 125744 125536 125323 125108 124890
          124669 124445 124218 123987 123749 123504 123247 122967 122788 122545 122328 122128
          121941 121735 121552 121415 121283 121151 121020 120889 120757 120626 120495 120364
          126055 125977 125903 125834 125774 125727 125696 125687 125794 125816 125761 125664
          125540 125396 125238 125068 124890 124705 124514 124318 124118 123913 123706 123495
          123280 123061 122837 122606 122365 122107 121815 121440 121278 121135 120963 120791
          120623 120426 120264 120139 120015 119890 119765 119639 119513 119387 119260 119134
          124390 124333 124278 124228 124184 124150 124126 124116 124126 124103 124038 123942
          123824 123691 123545 123391 123228 123059 122884 122704 122519 122330 122137 121940
          121738 121529 121314 121087 120845 120578 120271 119896 119827 119731 119597 119452
          119303 119116 118978 118863 118747 118629 118510 118390 118269 118147 118025 117903
          122724 122686 122649 122615 122585 122561 122544 122534 122503 122432 122344 122241
          122124 121998 121863 121721 121573 121418 121259 121094 120925 120751 120573 120390
          120201 120005 119801 119584 119350 119091 118796 118452 118429 118354 118246 118122
          117984 117812 117695 117589 117481 117369 117256 117141 117025 116908 116790 116672
          121057 121037 121018 120999 120981 120965 120952 120945 120888 120778 120667 120552
          120435 120313 120187 120057 119923 119783 119639 119489 119336 119177 119014 118846
          118672 118491 118300 118098 117879 117638 117368 117070 117071 117006 116913 116805
          116672 116519 116417 116319 116217 116111 116003 115893 115782 115669 115556 115442
          119390 119389 119386 119381 119374 119366 119357 119350 119271 119126 118992 118868
          118749 118633 118516 118399 118278 118153 118023 117889 117751 117607 117460 117307
          117149 116985 116812 116629 116432 116216 115976 115743 115744 115684 115600 115502
          115370 115235 115145 115053 114956 114856 114753 114648 114540 114432 114322 114212
          117724 117742 117757 117766 117769 117766 117759 117751 117644 117461 117308 117177
          117060 116952 116847 116743 116637 116527 116413 116294 116170 116042 115910 115774
          115633 115487 115334 115174 115002 114816 114611 114442 114443 114384 114305 114213
          114080 113962 113879 113792 113700 113604 113505 113403 113300 113195 113089 112983
          116060 116099 116132 116157 116170 116172 116162 116147 115993 115767 115602 115473
          115364 115267 115177 115090 115006 114913 114815 114712 114604 114492 114377 114258
          114136 114009 113879 113744 113603 113452 113288 113166 113166 113104 113025 112937
          112800 112697 112619 112536 112447 112355 112259 112161 112061 111959 111857 111753
          114399 114462 114517 114558 114583 114588 114571 114535 114264 114014 113860 113747
          113655 113576 113527 113846 113922 113873 113809 113738 113662 113581 113496 113407
          113314 113220 113124 113029 112934 112838 112739 112630 111916 111843 111761 111668
          111530 111442 111366 111284 111199 111109 111016 110921 110823 110725 110625 110524
          112743 112834 112914 112976 113016 113027 112997 112899 112636 112469 112350 112256
          112177 112110 112123 112130 112131 112082 112019 111948 111871 111791 111706 111617
          111524 111429 111334 111239 111144 111048 110949 110840 110698 110597 110506 110396
          110270 110193 110118 110038 109954 109866 109775 109682 109587 109491 109394 109295
          111093 111218 111328 111417 111478 111506 111492 111426 111299 111184 111087 111004
          110931 110865 110812 110834 110829 110760 110679 110592 110500 110406 110310 110211
          110107 110002 109898 109795 109679 109536 109444 109366 109289 109221 109157 109091
          109023 108951 108875 108796 108712 108626 108537 108446 108353 108259 108163 108067
          109451 109618 109764 109884 109973 110026 110040 110013 109952 109880 109809 109742
          109679 109618 109570 109591 109585 109515 109434 109346 109255 109161 109066 108968
          108863 108758 108654 108552 108416 108296 108217 108142 108068 107997 107928 107858
          107787 107713 107637 107557 107474 107389 107301 107211 107120 107027 106933 106839
          107820 108037 108227 108384 108504 108585 108628 108636 108614 108575 108528 108476
          108423 108369 108329 108350 108345 108275 108194 108107 108017 107924 107830 107732
          107627 107521 107419 107313 107174 107067 106991 106917 106843 106770 106699 106627
          106554 106478 106401 106321 106238 106154 106067 105978 105888 105797 105704 105611
          106204 106483 106723 106920 107073 107182 107252 107287 107293 107279 107250 107213
          107169 107121 107090 107111 107107 107037 106956 106870 106781 106689 106595 106498
          106391 106285 106183 106071 105934 105839 105765 105691 105617 105544 105470 105397
          105322 105246 105168 105087 105005 104921 104835 104747 104658 104567 104476 104384
          104613 104967 105263 105501 105684 105819 105912 105967 105993 105996 105982 105955
          105919 105877 105853 105874 105873 105802 105721 105635 105547 105456 105363 105266
          105156 105049 104947 104825 104696 104613 104538 104464 104390 104316 104242 104168
          104092 104015 103936 103856 103774 103690 103604 103517 103428 103338 103248 103157
          103065 103509 103861 104136 104345 104499 104608 104678 104717 104731 104725 104706
          104676 104637 104616 104639 104641 104569 104488 104403 104315 104225 104132 104036
          103920 103812 103706 103575 103463 103386 103312 103238 103164 103089 103015 102940
          102863 102786 102707 102626 102544 102460 102375 102288 102200 102111 102021 101930
          101608 102143 102538 102836 103060 103225 103342 103419 103465 103484 103484 103468
          103440 103404 103380 103404 103413 103340 103259 103174 103087 102996 102903 102808
          102682 102573 102450 102324 102235 102160 102086 102012 101937 101863 101788 101712
          101636 101558 101479 101399 101316 101233 101147 101061 100973 100884 100794 100704
        </DataArray>
        <DataArray type="Float32" Name="density_wetting" NumberOfComponents="1" format="ascii">
          1000 1000 1000 1000 1000 1000 1000 1000 1000 1000 1000 1000
          1000 1000 1000 1000 1000 1000 1000 1000 1000 1000 1000 1000
          1000 1000 1000 1000 1000 1000 1000 1000 1000 1000 1000 1000
          1000 1000 1000 1000 1000 1000 1000 1000 1000 1000 1000 1000
          1000 1000 1000 1000 1000 1000 1000 1000 1000 1000 1000 1000
          1000 1000 1000 1000 1000 1000 1000 1000 1000 1000 1000 1000
          1000 1000 1000 1000 1000 1000 1000 1000 1000 1000 1000 1000
          1000 1000 1000 1000 1000 1000 1000 1000 1000 1000 1000 1000
          1000 1000 1000 1000 1000 1000 1000 1000 1000 1000 1000 1000
          1000 1000 1000 1000 1000 1000 1000 1000 1000 1000 1000 1000
          1000 1000 1000 1000 1000 1000 1000 1000 1000 1000 1000 1000
          1000 1000 1000 1000 1000 1000 1000 1000 1000 1000 1000 1000
          1000 1000 1000 1000 1000 1000 1000 1000 1000 1000 1000 1000
          1000 1000 1000 1000 1000 1000 1000 1000 1000 1000 1000 1000
          1000 1000 1000 1000 1000 1000 1000 1000 1000 1000 1000 1000
          1000 1000 1000 1000 1000 1000 1000 1000 1000 1000 1000 1000
          1000 1000 1000 1000 1000 1000 1000 1000 1000 1000 1000 1000
          1000 1000 1000 1000 1000 1000 1000 1000 1000 1000 1000 1000
          1000 1000 1000 1000 1000 1000 1000 1000 1000 1000 1000 1000
          1000 1000 1000 1000 1000 1000 1000 1000 1000 1000 1000 1000
          1000 1000 1000 1000 1000 1000 1000 1000 1000 1000 1000 1000
          1000 1000 1000 1000 1000 1000 1000 1000 1000 1000 1000 1000
          1000 1000 1000 1000 1000 1000 1000 1000 1000 1000 1000 1000
          1000 1000 1000 1000 1000 1000 1000 1000 1000 1000 1000 1000
          1000 1000 1000 1000 1000 1000 1000 1000 1000 1000 1000 1000
          1000 1000 1000 1000 1000 1000 1000 1000 1000 1000 1000 1000
          1000 1000 1000 1000 1000 1000 1000 1000 1000 1000 1000 1000
          1000 1000 1000 1000 1000 1000 1000 1000 1000 1000 1000 1000
          1000 1000 1000 1000 1000 1000 1000 1000 1000 1000 1000 1000
          1000 1000 1000 1000 1000 1000 1000 1000 1000 1000 1000 1000
          1000 1000 1000 1000 1000 1000 1000 1000 1000 1000 1000 1000
          1000 1000 1000 1000 1000 1000 1000 1000 1000 1000 1000 1000
          1000 1000 1000 1000 1000 1000 1000 1000 1000 1000 1000 1000
          1000 1000 1000 1000 1000 1000 1000 1000 1000 1000 1000 1000
          1000 1000 1000 1000 1000 1000 1000 1000 1000 1000 1000 1000
          1000 1000 1000 1000 1000 1000 1000 1000 1000 1000 1000 1000
          1000 1000 1000 1000 1000 1000 1000 1000 1000 1000 1000 1000
          1000 1000 1000 1000 1000 1000 1000 1000 1000 1000 1000 1000
          1000 1000 1000 1000 1000 1000 1000 1000 1000 1000 1000 1000
          1000 1000 1000 1000 1000 1000 1000 1000 1000 1000 1000 1000
          1000 1000 1000 1000 1000 1000 1000 1000 1000 1000 1000 1000
          1000 1000 1000 1000 1000 1000 1000 1000 1000 1000 1000 1000
          1000 1000 1000 1000 1000 1000 1000 1000 1000 1000 1000 1000
          1000 1000 1000 1000 1000 1000 1000 1000 1000 1000 1000 1000
          1000 1000 1000 1000 1000 1000 1000 1000 1000 1000 1000 1000
          1000 1000 1000 1000 1000 1000 1000 1000 1000 1000 1000 1000
          1000 1000 1000 1000 1000 1000 1000 1000 1000 1000 1000 1000
          1000 1000 1000 1000 1000 1000 1000 1000 1000 1000 1000 1000
          1000 1000 1000 1000 1000 1000 1000 1000 1000 1000 1000 1000
          1000 1000 1000 1000 1000 1000 1000 1000 1000 1000 1000 1000
          1000 1000 1000 1000 1000 1000 1000 1000 1000 1000 1000 1000
          1000 1000 1000 1000 1000 1000 1000 1000 1000 1000 1000 1000
          1000 1000 1000 1000 1000 1000 1000 1000 1000 1000 1000 1000
          1000 1000 1000 1000 1000 1000 1000 1000 1000 1000 1000 1000
          1000 1000 1000 1000 1000 1000 1000 1000 1000 1000 1000 1000
          1000 1000 1000 1000 1000 1000 1000 1000 1000 1000 1000 1000
          1000 1000 1000 1000 1000 1000 1000 1000 1000 1000 1000 1000
          1000 1000 1000 1000 1000 1000 1000 1000 1000 1000 1000 1000
          1000 1000 1000 1000 1000 1000 1000 1000 1000 1000 1000 1000
          1000 1000 1000 1000 1000 1000 1000 1000 1000 1000 1000 1000
          1000 1000 1000 1000 1000 1000 1000 1000 1000 1000 1000 1000
          1000 1000 1000 1000 1000 1000 1000 1000 1000 1000 1000 1000
          1000 1000 1000 1000 1000 1000 1000 1000 1000 1000 1000 1000
          1000 1000 1000 1000 1000 1000 1000 1000 1000 1000 1000 1000
          1000 1000 1000 1000 1000 1000 1000 1000 1000 1000 1000 1000
          1000 1000 1000 1000 1000 1000 1000 1000 1000 1000 1000 1000
          1000 1000 1000 1000 1000 1000 1000 1000 1000 1000 1000 1000
          1000 1000 1000 1000 1000 1000 1000 1000 1000 1000 1000 1000
          1000 1000 1000 1000 1000 1000 1000 1000 1000 1000 1000 1000
          1000 1000 1000 1000 1000 1000 1000 1000 1000 1000 1000 1000
          1000 1000 1000 1000 1000 1000 1000 1000 1000 1000 1000 1000
          1000 1000 1000 1000 1000 1000 1000 1000 1000 1000 1000 1000
          1000 1000 1000 1000 1000 1000 1000 1000 1000 1000 1000 1000
          1000 1000 1000 1000 1000 1000 1000 1000 1000 1000 1000 1000
          1000 1000 1000 1000 1000 1000 1000 1000 1000 1000 1000 1000
          1000 1000 1000 1000 1000 1000 1000 1000 1000 1000 1000 1000