<?xml version="1.0"?>
<VTKFile type="UnstructuredGrid" version="0.1" byte_order="LittleEndian">
  <UnstructuredGrid>
    <Piece NumberOfCells="1536" NumberOfPoints="1617">
      <PointData Scalars="pressure_w">
        <DataArray type="Float32" Name="pressure_w" NumberOfComponents="1" format="ascii">
          150941 150334 149670 149069 149803 148547 149331 148082 148907 147662 148521 147279
          148165 146926 147836 146599 147530 146294 147242 146007 146969 145736 146711 145479
          146464 145233 146227 144997 145998 144768 145776 144547 145561 144332 145350 144122
          145144 143916 144942 143714 144743 143516 144548 143320 144354 143127 144164 142936
          143975 142748 143789 142562 143605 142378 143424 142196 143245 142017 143068 141840
          142894 141666 142723 141495 142555 141327 142394 141162 142237 140998 142074 140829
          141897 140655 141716 140472 141530 140283 141338 140088 141143 139890 140948 139691
          140755 139496 140568 139308 140388 139132 140218 138969 140055 138818 139904 138674
          139740 138538 148280 147732 147236 146789 146381 146007 145661 145340 145040 144758
          144490 144236 143992 143758 143532 143312 143098 142889 142684 142483 142285 142090
          141897 141707 141518 141332 141148 140967 140787 140610 140436 140264 140095 139928
          139761 139592 139417 139234 139044 138848 138649 138451 138258 138073 137901 137741
          137593 137451 137316 146836 146338 145879 145456 145066 144707 144373 144061 143768
          143493 143231 142981 142742 142512 142288 142071 141860 141652 141449 141249 141052
          140857 140665 140475 140287 140101 139917 139735 139555 139377 139202 139030 138860
          138692 138524 138354 138177 137992 137801 137604 137405 137207 137016 136835 136667
          136511 136365 136226 136091 145357 144907 144484 144089 143722 143380 143061 142762
          142480 142214 141960 141717 141483 141258 141039 140825 140616 140412 140210 140012
          139816 139622 139430 139241 139053 138867 138683 138500 138320 138142 137966 137793
          137622 137454 137285 137113 136935 136748 136554 136356 136156 135960 135771 135594
          135431 135279 135136 134998 134865 143854 143446 143060 142695 142353 142032 141730
          141446 141177 140922 140678 140443 140217 139997 139784 139574 139369 139167 138968
          138772 138577 138385 138194 138005 137817 137631 137447 137264 137084 136905 136728
          136554 136382 136213 136044 135870 135689 135500 135303 135103 134903 134708 134523
          134352 134193 134045 133905 133769 133636 142333 141965 141613 141278 140962 140664
          140382 140115 139861 139619 139386 139162 138944 138731 138524 138320 138119 137921
          137724 137530 137337 137146 136956 136768 136580 136394 136210 136026 135845 135665
          135488 135312 135140 134970 134800 134624 134440 134247 134048 133845 133645 133453
          133273 133107 132954 132810 132672 132538 132406 140799 140467 140147 139843 139553
          139279 139018 138770 138533 138306 138086 137873 137665 137461 137260 137062 136866
          136672 136478 136287 136096 135906 135717 135529 135342 135156 134971 134787 134604
          134423 134244 134068 133895 133724 133552 133374 133186 132989 132786 132583 132384
          132195 132021 131861 131714 131573 131438 131306 131175 139253 138955 138668 138392
          138130 137880 137642 137414 137196 136985 136780 136580 136382 136187 135994 135802
          135611 135421 135231 135042 134853 134665 134477 134290 134103 133916 133730 133546
          133362 133179 132999 132821 132646 132475 132301 132118 131926 131725 131519 131315
          131118 130935 130768 130615 130472 130335 130202 130072 129943 137698 137432 137175
          136929 136694 136469 136255 136049 135851 135659 135470 135283 135097 134912 134727
          134542 134356 134170 133984 133797 133610 133424 133237 133050 132863 132676 132489
          132303 132118 131934 131751 131571 131394 131221 131044 130857 130660 130454 130246
          130042 129849 129673 129513 129367 129229 129096 128965 128837 128710 136136 135900
          135673 135454 135246 135048 134858 134677 134501 134328 134157 133985 133812 133637
          133460 133281 133101 132919 132736 132552 132368 132182 131996 131810 131623 131435
          131248 131060 130873 130686 130501 130318 130138 129963 129782 129589 129385 129174
          128965 128763 128577 128409 128258 128118 127984 127854 127727 127601 127476 134567
          134360 134161 133970 133789 133617 133455 133299 133148 132997 132845 132689 132529
          132364 132195 132023 131848 131670 131490 131309 131126 130941 130756 130570 130383
          130195 130007 129817 129628 129438 129248 129061 128877 128698 128512 128312 128100
          127886 127676 127480 127303 127145 127002 126868 126739 126612 126487 126363 126241
          132991 132812 132640 132476 132322 132177 132043 131917 131793 131668 131537 131397
          131250 131095 130933 130767 130596 130422 130245 130066 129885 129702 129517 129331
          129144 128956 128766 128575 128383 128189 127995 127801 127610 127426 127231 127021
          126803 126586 126381 126193 126027 125880 125745 125617 125492 125368 125246 125125
          125005 131410 131257 131110 130972 130844 130727 130623 130530 130442 130346 130237
          130114 129978 129832 129677 129516 129349 129178 129003 128825 128645 128463 128279
          128094 127907 127718 127527 127334 127139 126941 126740 126538 126336 126143 125935
          125714 125490 125276 125078 124903 124752 124616 124488 124365 124243 124123 124004
          123886 123769 129823 129694 129572 129458 129355 129264 129190 129139 129098 129039
          128953 128843 128717 128577 128427 128269 128105 127937 127764 127587 127408 127227
          127043 126858 126671 126481 126290 126095 125898 125696 125489 125276 125055 124841
          124611 124380 124159 123955 123772 123614 123477 123351 123230 123111 122994 122878
          122762 122647 122532 128231 128126 128026 127935 127853 127785 127735 127720 127788
          127762 127690 127589 127468 127332 127185 127029 126867 126699 126527 126352 126174
          125993 125809 125624 125437 125247 125055 124860 124660 124456 124244 124020 123783
          123483 123236 123016 122812 122626 122465 122326 122203 122086 121971 121857 121744
          121632 121519 121407 121295 126634 126551 126473 126401 126339 126288 126252 126233
          126312 126312 126248 126153 126038 125908 125767 125617 125461 125299 125133 124963
          124790 124615 124436 124255 124071 123884 123694 123498 123296 123084 122857 122600
          122252 121940 121804 121629 121457 121298 121161 121042 120930 120821 120712 120603
          120494 120386 120276 120167 120058 125034 124971 124912 124859 124813 124776 124750
          124739 124730 124696 124629 124536 124426 124304 124172 124032 123887 123736 123581
          123422 123260 123094 122925 122752 122576 122394 122208 122013 121808 121587 121341
          121052 120690 120465 120373 120244 120105 119977 119865 119760 119658 119556 119453
          119349 119245 119139 119034 118927 118821 123430 123387 123347 123310 123278 123252
          123234 123224 123188 123116 123032 122935 122826 122709 122584 122453 122317 122177
          122033 121884 121732 121576 121416 121253 121084 120910 120729 120538 120334 120112
          119863 119576 119240 119042 118975 118877 118769 118669 118575 118483 118389 118293
          118196 118096 117996 117894 117791 117688 117584 121825 121801 121778 121756 121737
          121720 121708 121701 121650 121551 121451 121345 121235 121121 121002 120879 120753
          120622 120488 120350 120208 120062 119912 119758 119598 119433 119260 119076 118879
          118664 118423 118152 117843 117666 117614 117537 117453 117372 117292 117209 117123
          117033 116940 116844 116747 116649 116549 116449 116348 120219 120214 120208 120201
          120193 120184 120177 120171 120109 119990 119874 119760 119649 119537 119424 119310
          119192 119072 118947 118820 118688 118552 118412 118268 118118 117963 117800 117627
          117442 117239 117015 116765 116486 116328 116284 116222 116155 116088 116017 115941
          115860 115775 115686 115594 115501 115405 115309 115211 115112 118614 118629 118640
          118646 118649 118647 118643 118639 118565 118424 118294 118174 118062 117954 117848
          117742 117635 117525 117411 117293 117171 117046 116916 116783 116644 116501 116350
          116191 116021 115837 115634 115409 115160 115019 114981 114929 114873 114814 114750
          114679 114602 114520 114435 114347 114256 114163 114069 113974 113877 117013 117048
          117076 117096 117108 117113 117111 117106 117014 116847 116703 116580 116471 116370
          116273 116177 116080 115981 115878 115770 115659 115544 115425 115302 115176 115045
          114909 114766 114615 114452 114275 114079 113860 113736 113702 113655 113605 113551
          113490 113422 113348 113269 113187 113101 113013 112923 112831 112737 112643 115418
          115474 115520 115555 115576 115585 115582 115571 115446 115242 115092 114974 114872
          114781 114696 114613 114529 114441 114349 114252 114151 114046 113937 113826 113711
          113594 113473 113349 113219 113082 112935 112771 112585 112477 112443 112398 112351
          112298 112238 112171 112099 112022 111942 111858 111772 111684 111594 111502 111409
          113831 113911 113976 114026 114058 114069 114059 114042 113802 113583 113452 113351
          113265 113187 113116 113049 112982 112907 112825 112738 112646 112551 112453 112352
          112250 112146 112042 111937 111831 111723 111610 111488 111338 111245 111205 111156
          111108 111054 110993 110926 110854 110779 110700 110618 110533 110447 110358 110268
          110177 112255 112361 112448 112516 112560 112576 112558 112473 112242 112107 112002
          111915 111840 111771 111707 111650 111597 111527 111450 111367 111279 111189 111096
          111001 110904 110807 110711 110617 110524 110431 110337 110242 110145 110053 109983
          109928 109875 109816 109753 109685 109614 109539 109461 109380 109297 109211 109124
          109036 108946 110694 110828 110941 111029 111088 111116 111104 111042 110941 110837
          110749 110670 110599 110533 110469 110407 110342 110270 110188 110099 110006 109910
          109812 109713 109612 109514 109423 109339 109259 109179 109098 109015 108930 108849
          108776 108710 108648 108584 108518 108449 108377 108302 108224 108144 108062 107978
          107892 107805 107716 109150 109317 109458 109569 109648 109693 109702 109674 109620
          109554 109485 109418 109354 109291 109229 109166 109102 109030 108948 108860 108768
          108673 108576 108477 108378 108283 108194 108112 108032 107952 107872 107792 107711
          107634 107560 107490 107422 107355 107286 107215 107142 107067 106990 106911 106829
          106746 106661 106575 106487 107628 107833 108006 108142 108243 108307 108337 108336
          108311 108269 108219 108164 108107 108049 107989 107928 107864 107792 107711 107623
          107532 107438 107342 107244 107146 107052 106966 106885 106805 106726 106647 106568
          106490 106414 106340 106268 106197 106127 106056 105984 105910 105835 105758 105679
          105599 105516 105432 105347 105259 106135 106384 106589 106752 106873 106956 107004
          107023 107017 106993 106957 106912 106862 106808 106751 106691 106629 106557 106476
          106388 106298 106204 106109 106012 105915 105822 105738 105658 105579 105501 105423
          105345 105267 105191 105117 105044 104972 104900 104828 104754 104680 104605 104528
          104449 104369 104288 104205 104121 104033 104681 104978 105217 105402 105541 105639
          105702 105734 105741 105729 105703 105666 105621 105570 105515 105457 105396 105325
          105243 105156 105066 104973 104878 104782 104685 104593 104511 104432 104353 104275
          104197 104120 104043 103968 103893 103819 103746 103673 103600 103526 103451 103376
          103299 103221 103141 103061 102980 102897 102810 103284 103633 103898 104100 104250
          104358 104429 104470 104485 104480 104459 104426 104385 104336 104283 104226 104166
          104095 104012 103926 103836 103744 103649 103553 103456 103365 103284 103206 103127
          103049 102972 102895 102818 102743 102668 102594 102520 102446 102373 102299 102224
          102148 102071 101993 101914 101835 101756 101678 101594 102012 102366 102639 102847
          103002 103113 103188 103231 103248 103245 103227 103195 103155 103108 103055 102998
          102938 102867 102784 102698 102608 102516 102422 102326 102228 102138 102058 101980
          101901 101823 101746 101669 101592 101517 101442 101368 101294 101220 101146 101072
          100997 100921 100844 100766 100688 100609 100531 100457 100408
        </DataArray>
        <DataArray type="Float32" Name="pressure_n" NumberOfComponents="1" format="ascii">
          150941 150334 149670 149069 149803 148547 149331 148082 148907 147662 148521 147279
          148165 146926 147836 146599 147530 146294 147242 146007 146969 145736 146711 145479
          146464 145233 146227 144997 145998 144768 145776 144547 145561 144332 145350 144122
          145144 143916 144942 143714 144743 143516 144548 143320 144354 143127 144164 142936
          143975 142748 143789 142562 143605 142378 143424 142196 143245 142017 143068 141840
          142894 141666 142723 141495 142555 141327 142526 141266 142395 141121 142252 140965
          142093 140800 141928 140625 141755 140441 141576 140250 141394 140054 141211 139857
          141030 139661 140854 139471 140685 139290 140522 139120 140363 138960 140202 138806
          140010 138661 148280 147732 147236 146789 146381 146007 145661 145340 145040 144758
          144490 144236 143992 143758 143532 143312 143098 142889 142684 142483 142285 142090
          141897 141707 141518 141332 141148 140967 140787 140610 140436 140264 140095 140035
          139886 139729 139562 139386 139201 139008 138811 138613 138417 138228 138050 137881
          137723 137571 137429 146836 146338 145879 145456 145066 144707 144373 144061 143768
          143493 143231 142981 142742 142512 142288 142071 141860 141652 141449 141249 141052
          140857 140665 140475 140287 140101 139917 139735 139555 139377 139202 139030 138860
          138802 138652 138493 138325 138147 137960 137766 137567 137369 137175 136988 136812
          136647 136491 136341 136199 145357 144907 144484 144089 143722 143380 143061 142762
          142480 142214 141960 141717 141483 141258 141039 140825 140616 140412 140210 140012
          139816 139622 139430 139241 139053 138867 138683 138500 138320 138142 137966 137793
          137622 137567 137416 137256 137085 136905 136715 136519 136319 136121 135928 135745
          135573 135411 135257 135108 134966 143854 143446 143060 142695 142353 142032 141730
          141446 141177 140922 140678 140443 140217 139997 139784 139574 139369 139167 138968
          138772 138577 138385 138194 138005 137817 137631 137447 137264 137084 136905 136728
          136554 136382 136329 136178 136015 135842 135658 135466 135267 135066 134869 134678
          134499 134331 134172 134021 133874 133728 142333 141965 141613 141278 140962 140664
          140382 140115 139861 139619 139386 139162 138944 138731 138524 138320 138119 137921
          137724 137530 137337 137146 136956 136768 136580 136394 136210 136026 135845 135665
          135488 135312 135140 135090 134937 134772 134595 134408 134211 134010 133809 133612
          133426 133251 133087 132932 132783 132633 132487 140799 140467 140147 139843 139553
          139279 139018 138770 138533 138306 138086 137873 137665 137461 137260 137062 136866
          136672 136478 136287 136096 135906 135717 135529 135342 135156 134971 134787 134604
          134423 134244 134068 133895 133847 133692 133524 133344 133152 132952 132748 132547
          132353 132170 132000 131841 131689 131542 131389 131242 139253 138955 138668 138392
          138130 137880 137642 137414 137196 136985 136780 136580 136382 136187 135994 135802
          135611 135421 135231 135042 134853 134665 134477 134290 134103 133916 133730 133546
          133362 133179 132999 132821 132646 132601 132444 132272 132087 131890 131686 131480
          131280 131090 130913 130749 130594 130445 130296 130141 129996 137698 137432 137175
          136929 136694 136469 136255 136049 135851 135659 135470 135283 135097 134912 134727
          134542 134356 134170 133984 133797 133610 133424 133237 133050 132863 132676 132489
          132303 132118 131934 131751 131571 131394 131351 131191 131014 130823 130620 130413
          130207 130009 129824 129653 129495 129345 129198 129045 128891 128749 136136 135900
          135673 135454 135246 135048 134858 134677 134501 134328 134157 133985 133812 133637
          133460 133281 133101 132919 132736 132552 132368 132182 131996 131810 131623 131435
          131248 131060 130873 130686 130501 130318 130138 130097 129932 129749 129551 129343
          129132 128927 128734 128556 128393 128240 128093 127945 127791 127640 127502 134567
          134360 134161 133970 133789 133617 133455 133299 133148 132997 132845 132689 132529
          132364 132195 132023 131848 131670 131490 131309 131126 130941 130756 130570 130383
          130195 130007 129817 129628 129438 129248 129061 128877 128837 128666 128475 128269
          128056 127844 127642 127455 127286 127130 126983 126839 126687 126536 126390 126256
          132991 132812 132640 132476 132322 132177 132043 131917 131793 131668 131537 131397
          131250 131095 130933 130767 130596 130422 130245 130066 129885 129702 129517 129331
          129144 128956 128766 128575 128383 128189 127995 127801 127610 127570 127390 127188
          126974 126757 126547 126352 126175 126015 125866 125724 125577 125426 125280 125141
          125012 131410 131257 131110 130972 130844 130727 130623 130530 130442 130346 130237
          130114 129978 129832 129677 129516 129349 129178 129003 128825 128645 128463 128279
          128094 127907 127718 127527 127334 127139 126941 126740 126538 126336 126292 126099
          125884 125663 125447 125243 125058 124893 124742 124601 124460 124311 124165 124026
          123894 123770 129823 129694 129572 129458 129355 129264 129190 129139 129098 129039
          128953 128843 128717 128577 128427 128269 128105 127937 127764 127587 127408 127227
          127043 126858 126671 126481 126290 126095 125898 125696 125489 125276 125055 124997
          124780 124555 124334 124124 123932 123762 123610 123469 123334 123190 123044 122905
          122773 122649 122532 128231 128126 128026 127935 127853 127785 127735 127720 127788
          127762 127690 127589 127468 127332 127185 127029 126867 126699 126527 126352 126174
          125993 125809 125624 125437 125247 125055 124860 124660 124456 124244 124020 123783
          123647 123412 123195 122987 122793 122619 122466 122327 122195 122059 121917 121778
          121647 121524 121407 121295 126634 126551 126473 126401 126339 126288 126252 126233
          126312 126312 126248 126153 126038 125908 125767 125617 125461 125299 125133 124963
          124790 124615 124436 124255 124071 123884 123694 123498 123296 123084 122857 122600
          122252 122124 121989 121810 121630 121459 121308 121172 121045 120918 120781 120645
          120515 120392 120277 120167 120058 125034 124971 124912 124859 124813 124776 124750
          124739 124730 124696 124629 124536 124426 124304 124172 124032 123887 123736 123581
          123422 123260 123094 122925 122752 122576 122394 122208 122013 121808 121587 121341
          121052 120690 120656 120560 120423 120273 120131 120002 119881 119764 119635 119503
          119376 119255 119141 119034 118927 118821 123430 123387 123347 123310 123278 123252
          123234 123224 123188 123116 123032 122935 122826 122709 122584 122453 122317 122177
          122033 121884 121732 121576 121416 121253 121084 120910 120729 120538 120334 120112
          119863 119576 119240 119236 119162 119053 118931 118814 118703 118594 118479 118354
          118230 118111 118000 117894 117791 117688 117584 121825 121801 121778 121756 121737
          121720 121708 121701 121650 121551 121451 121345 121235 121121 121002 120879 120753
          120622 120488 120350 120208 120062 119912 119758 119598 119433 119260 119076 118879
          118664 118423 118152 117865 117861 117799 117708 117608 117509 117411 117311 117195
          117076 116961 116852 116748 116649 116549 116449 116348 120219 120214 120208 120201
          120193 120184 120177 120171 120109 119990 119874 119760 119649 119537 119424 119310
          119192 119072 118947 118820 118688 118552 118412 118268 118118 117963 117800 117627
          117442 117239 117015 116765 116527 116524 116468 116389 116303 116216 116128 116028
          115915 115804 115698 115597 115501 115405 115309 115211 115112 118614 118629 118640
          118646 118649 118647 118643 118639 118565 118424 118294 118174 118062 117954 117848
          117742 117635 117525 117411 117293 117171 117046 116916 116783 116644 116501 116350
          116191 116021 115837 115634 115409 115220 115217 115163 115091 115014 114935 114851
          114748 114641 114538 114440 114347 114256 114163 114069 113974 113877 117013 117048
          117076 117096 117108 117113 117111 117106 117014 116847 116703 116580 116471 116370
          116273 116177 116081 115982 115879 115772 115660 115546 115427 115305 115179 115048
          114913 114771 114621 114459 114284 114092 113993 113935 113881 113812 113739 113664
          113577 113474 113374 113279 113188 113101 113013 112923 112831 112737 112643 115418
          115474 115520 115555 115576 115585 115582 115571 115446 115242 115092 114974 114872
          114788 114738 114688 114632 114562 114485 114401 114312 114219 114123 114024 113921
          113815 113707 113596 113482 113362 113238 113109 113179 112675 112619 112549 112477
          112402 112306 112207 112114 112026 111942 111858 111772 111684 111594 111502 111409
          113831 113911 113976 114026 114058 114069 114059 114042 113802 113583 113452 113351
          113297 113495 113601 113584 113573 113526 113466 113397 113321 113241 113157 113070
          112980 112888 112795 112702 112608 112513 112417 112317 112381 111445 111377 111299
          111224 111140 111039 110946 110861 110779 110700 110618 110533 110447 110358 110268
          110177 112255 112361 112448 112516 112560 112576 112558 112473 112242 112107 112002
          111915 111868 111834 111807 111795 111782 111736 111676 111606 111531 111450 111367
          111280 111190 111098 111005 110911 110818 110723 110626 110527 110389 110262 110148
          110058 109975 109871 109776 109693 109615 109539 109461 109380 109297 109211 109124
          109036 108946 110694 110828 110941 111029 111088 111116 111104 111042 110941 110837
          110749 110670 110599 110533 110490 110491 110481 110423 110348 110262 110171 110076
          109979 109880 109776 109671 109568 109470 109375 109280 109173 109062 108955 108858
          108777 108710 108648 108584 108518 108449 108377 108302 108224 108144 108062 107978
          107892 107805 107716 109150 109317 109458 109569 109648 109693 109702 109674 109620
          109554 109485 109418 109354 109291 109249 109248 109241 109182 109106 109020 108928
          108834 108737 108638 108535 108429 108327 108229 108133 108024 107915 107813 107718
          107634 107560 107490 107422 107355 107286 107215 107142 107067 106990 106911 106829
          106746 106661 106575 106487 107628 107833 108006 108142 108243 108307 108337 108336
          108311 108269 108219 108164 108107 108049 108009 108010 108005 107946 107869 107783
          107692 107599 107503 107405 107301 107196 107094 106996 106895 106784 106678 106581
          106493 106414 106340 106268 106197 106127 106056 105984 105910 105835 105758 105679
          105599 105516 105432 105347 105259 106135 106384 106589 106752 106873 106956 107004
          107023 107017 106993 106957 106912 106862 106808 106770 106773 106771 106713 106635
          106549 106458 106365 106270 106173 106069 105962 105861 105763 105654 105543 105442
          105351 105268 105191 105117 105044 104972 104900 104828 104754 104680 104605 104528
          104449 104369 104288 104205 104121 104033 104681 104978 105217 105402 105541 105639
          105702 105734 105741 105729 105703 105666 105621 105570 105533 105539 105539 105481
          105403 105316 105226 105134 105039 104942 104838 104729 104627 104524 104408 104302
          104208 104122 104043 103968 103893 103819 103746 103673 103600 103526 103451 103376
          103299 103221 103141 103061 102980 102897 102810 103284 103633 103898 104100 104250
          104358 104429 104470 104485 104480 104459 104426 104385 104336 104298 104308 104311
          104253 104173 104086 103997 103904 103810 103714 103607 103494 103391 103273 103160
          103062 102975 102895 102818 102743 102668 102594 102520 102446 102373 102299 102224
          102148 102071 101993 101914 101835 101756 101678 101594 102012 102366 102639 102847
          103002 103113 103188 103231 103248 103245 103227 103195 103155 103108 103061 103068
          103085 103027 102945 102859 102769 102677 102583 102487 102377 102253 102126 102005
          101909 101825 101746 101669 101592 101517 101442 101368 101294 101220 101146 101072
          100997 100921 100844 100766 100688 100609 100531 100457 100408
        </DataArray>
        <DataArray type="Float32" Name="density_w" NumberOfComponents="1" format="ascii">
          1000 1000 1000 1000 1000 1000 1000 1000 1000 1000 1000 1000
          1000 1000 1000 1000 1000 1000 1000 1000 1000 1000 1000 1000
          1000 1000 1000 1000 1000 1000 1000 1000 1000 1000 1000 1000
          1000 1000 1000 1000 1000 1000 1000 1000 1000 1000 1000 1000
          1000 1000 1000 1000 1000 1000 1000 1000 1000 1000 1000 1000
          1000 1000 1000 1000 1000 1000 1000 1000 1000 1000 1000 1000
          1000 1000 1000 1000 1000 1000 1000 1000 1000 1000 1000 1000
          1000 1000 1000 1000 1000 1000 1000 1000 1000 1000 1000 1000
          1000 1000 1000 1000 1000 1000 1000 1000 1000 1000 1000 1000
          1000 1000 1000 1000 1000 1000 1000 1000 1000 1000 1000 1000
          1000 1000 1000 1000 1000 1000 1000 1000 1000 1000 1000 1000
          1000 1000 1000 1000 1000 1000 1000 1000 1000 1000 1000 1000
          1000 1000 1000 1000 1000 1000 1000 1000 1000 1000 1000 1000
          1000 1000 1000 1000 1000 1000 1000 1000 1000 1000 1000 1000
          1000 1000 1000 1000 1000 1000 1000 1000 1000 1000 1000 1000
          1000 1000 1000 1000 1000 1000 1000 1000 1000 1000 1000 1000
          1000 1000 1000 1000 1000 1000 1000 1000 1000 1000 1000 1000
          1000 1000 1000 1000 1000 1000 1000 1000 1000 1000 1000 1000
          1000 1000 1000 1000 1000 1000 1000 1000 1000 1000 1000 1000
          1000 1000 1000 1000 1000 1000 1000 1000 1000 1000 1000 1000
          1000 1000 1000 1000 1000 1000 1000 1000 1000 1000 1000 1000
          1000 1000 1000 1000 1000 1000 1000 1000 1000 1000 1000 1000
          1000 1000 1000 1000 1000 1000 1000 1000 1000 1000 1000 1000
          1000 1000 1000 1000 1000 1000 1000 1000 1000 1000 1000 1000
          1000 1000 1000 1000 1000 1000 1000 1000 1000 1000 1000 1000
          1000 1000 1000 1000 1000 1000 1000 1000 1000 1000 1000 1000
          1000 1000 1000 1000 1000 1000 1000 1000 1000 1000 1000 1000
          1000 1000 1000 1000 1000 1000 1000 1000 1000 1000 1000 1000
          1000 1000 1000 1000 1000 1000 1000 1000 1000 1000 1000 1000
          1000 1000 1000 1000 1000 1000 1000 1000 1000 1000 1000 1000
          1000 1000 1000 1000 1000 1000 1000 1000 1000 1000 1000 1000
          1000 1000 1000 1000 1000 1000 1000 1000 1000 1000 1000 1000
          1000 1000 1000 1000 1000 1000 1000 1000 1000 1000 1000 1000
          1000 1000 1000 1000 1000 1000 1000 1000 1000 1000 1000 1000
          1000 1000 1000 1000 1000 1000 1000 1000 1000 1000 1000 1000
          1000 1000 1000 1000 1000 1000 1000 1000 1000 1000 1000 1000
          1000 1000 1000 1000 1000 1000 1000 1000 1000 1000 1000 1000
          1000 1000 1000 1000 1000 1000 1000 1000 1000 1000 1000 1000
          1000 1000 1000 1000 1000 1000 1000 1000 1000 1000 1000 1000
          1000 1000 1000 1000 1000 1000 1000 1000 1000 1000 1000 1000
          1000 1000 1000 1000 1000 1000 1000 1000 1000 1000 1000 1000
          1000 1000 1000 1000 1000 1000 1000 1000 1000 1000 1000 1000
          1000 1000 1000 1000 1000 1000 1000 1000 1000 1000 1000 1000
          1000 1000 1000 1000 1000 1000 1000 1000 1000 1000 1000 1000
          1000 1000 1000 1000 1000 1000 1000 1000 1000 1000 1000 1000
          1000 1000 1000 1000 1000 1000 1000 1000 1000 1000 1000 1000
          1000 1000 1000 1000 1000 1000 1000 1000 1000 1000 1000 1000
          1000 1000 1000 1000 1000 1000 1000 1000 1000 1000 1000 1000
          1000 1000 1000 1000 1000 1000 1000 1000 1000 1000 1000 1000
          1000 1000 1000 1000 1000 1000 1000 1000 1000 1000 1000 1000
          1000 1000 1000 1000 1000 1000 1000 1000 1000 1000 1000 1000
          1000 1000 1000 1000 1000 1000 1000 1000 1000 1000 1000 1000
          1000 1000 1000 1000 1000 1000 1000 1000 1000 1000 1000 1000
          1000 1000 1000 1000 1000 1000 1000 1000 1000 1000 1000 1000
          1000 1000 1000 1000 1000 1000 1000 1000 1000 1000 1000 1000
          1000 1000 1000 1000 1000 1000 1000 1000 1000 1000 1000 1000
          1000 1000 1000 1000 1000 1000 1000 1000 1000 1000 1000 1000
          1000 1000 1000 1000 1000 1000 1000 1000 1000 1000 1000 1000
          1000 1000 1000 1000 1000 1000 1000 1000 1000 1000 1000 1000