<?xml version="1.0"?>
<VTKFile type="UnstructuredGrid" version="0.1" byte_order="LittleEndian">
  <UnstructuredGrid>
    <Piece NumberOfCells="1536" NumberOfPoints="1617">
      <CellData Scalars="pressure_w">
        <DataArray type="Float32" Name="pressure_w" NumberOfComponents="1" format="ascii">
          152046 151209 150510 149904 149368 148886 148449 148047 147676 147330 147006 146700
          146409 146132 145865 145609 145360 145118 144883 144653 144427 144205 143987 143773
          143562 143353 143148 142946 142747 142552 142360 142172 141988 141799 141604 141403
          141195 140980 140759 140533 140305 140076 139848 139625 139406 139193 138986 138786
          150591 149845 149189 148608 148087 147616 147186 146791 146425 146083 145762 145458
          145170 144894 144630 144374 144127 143886 143651 143422 143197 142975 142758 142543
          142332 142124 141919 141717 141518 141322 141130 140940 140755 140563 140366 140162
          139950 139732 139508 139279 139048 138818 138590 138368 138154 137949 137754 137568
          149045 148392 147795 147251 146757 146305 145890 145506 145148 144814 144499 144201
          143918 143646 143385 143132 142887 142648 142415 142186 141962 141742 141525 141311
          141100 140892 140687 140484 140285 140089 139896 139706 139519 139326 139126 138920
          138707 138487 138261 138032 137801 137571 137346 137127 136917 136716 136525 136344
          147458 146884 146346 145846 145384 144957 144561 144193 143849 143526 143221 142930
          142653 142387 142131 141882 141640 141404 141173 140947 140724 140505 140289 140075
          139865 139657 139451 139249 139049 138853 138659 138468 138281 138086 137885 137676
          137460 137238 137011 136781 136550 136322 136099 135883 135677 135481 135294 135117
          145848 145341 144858 144403 143976 143578 143206 142857 142529 142220 141926 141646
          141378 141119 140869 140625 140388 140156 139928 139704 139483 139265 139050 138837
          138627 138419 138214 138011 137811 137613 137419 137228 137040 136843 136640 136429
          136210 135986 135757 135526 135295 135069 134849 134637 134436 134244 134062 133888
          144224 143775 143343 142930 142540 142173 141826 141500 141191 140898 140619 140351
          140093 139843 139600 139363 139131 138903 138678 138457 138238 138022 137808 137596
          137386 137179 136973 136770 136569 136371 136176 135984 135796 135597 135391 135177
          134956 134729 134498 134266 134037 133812 133596 133390 133193 133007 132830 132659
          142591 142193 141807 141436 141082 140746 140427 140125 139837 139563 139299 139045
          138799 138560 138325 138095 137869 137646 137426 137207 136991 136777 136564 136353
          136144 135936 135730 135526 135325 135126 134930 134737 134548 134347 134138 133921
          133697 133467 133234 133002 132774 132553 132342 132141 131950 131769 131597 131430
          140952 140600 140256 139924 139606 139302 139012 138735 138470 138216 137971 137732
          137499 137271 137046 136824 136605 136387 136171 135956 135743 135530 135319 135109
          134900 134692 134485 134281 134078 133878 133680 133486 133296 133093 132881 132660
          132432 132199 131965 131734 131508 131291 131085 130891 130706 130531 130363 130201
          139309 138998 138694 138399 138115 137843 137583 137333 137093 136861 136635 136413
          136195 135979 135764 135551 135338 135126 134915 134703 134493 134282 134072 133863
          133654 133446 133239 133033 132829 132627 132427 132232 132041 131834 131618 131392
          131160 130925 130691 130461 130238 130027 129828 129640 129462 129293 129130 128972
          137662 137389 137122 136863 136613 136373 136143 135922 135708 135500 135295 135091
          134888 134685 134481 134276 134071 133865 133658 133450 133242 133034 132825 132617
          132408 132199 131991 131783 131577 131373 131171 130973 130780 130569 130347 130117
          129882 129644 129410 129183 128966 128761 128569 128389 128218 128055 127897 127742
          136011 135774 135542 135317 135100 134893 134694 134503 134318 134135 133953 133769
          133582 133392 133199 133003 132805 132604 132402 132198 131993 131786 131579 131371
          131162 130952 130743 130533 130324 130116 129910 129709 129513 129297 129069 128834
          128594 128356 128123 127900 127690 127494 127311 127138 126974 126816 126663 126513
          134359 134155 133956 133763 133579 133404 133238 133079 132925 132771 132613 132449
          132278 132102 131919 131732 131541 131345 131147 130947 130744 130539 130333 130125
          129916 129706 129494 129282 129069 128857 128646 128439 128239 128015 127780 127539
          127297 127058 126829 126614 126413 126226 126052 125887 125730 125578 125429 125283
          132704 132531 132363 132201 132048 131906 131773 131651 131532 131410 131278 131135
          130981 130817 130645 130465 130280 130090 129895 129698 129497 129294 129088 128881
          128671 128460 128247 128031 127814 127596 127378 127162 126955 126721 126478 126231
          125987 125752 125530 125324 125134 124958 124793 124637 124486 124339 124195 124053
          131046 130902 130763 130631 130508 130397 130300 130218 130144 130059 129955 129833
          129694 129541 129377 129205 129024 128838 128647 128451 128252 128051 127846 127639
          127429 127216 127001 126782 126561 126335 126106 125878 125657 125409 125157 124907
          124665 124437 124226 124033 123856 123691 123535 123386 123242 123100 122961 122823
          129387 129269 129156 129051 128955 128874 128812 128776 128767 128726 128651 128546
          128420 128276 128119 127951 127775 127591 127402 127209 127011 126810 126606 126399
          126189 125975 125758 125537 125311 125077 124835 124585 124335 124068 123810 123563
          123330 123115 122920 122742 122578 122424 122278 122136 121998 121861 121726 121593
          127725 127632 127542 127460 127388 127331 127298 127308 127421 127428 127375 127283
          127164 127025 126871 126706 126532 126350 126163 125970 125773 125573 125369 125162
          124952 124738 124520 124297 124067 123828 123573 123291 122954 122678 122430 122198
          121984 121789 121613 121452 121301 121159 121021 120886 120754 120622 120492 120362
          126061 125990 125922 125859 125806 125765 125741 125736 125860 125903 125864 125781
          125669 125538 125392 125235 125068 124895 124715 124530 124341 124147 123950 123749
          123544 123334 123118 122893 122657 122401 122107 121721 121375 121212 121016 120818
          120633 120464 120309 120164 120027 119895 119765 119637 119510 119383 119258 119132
          124395 124344 124295 124250 124212 124182 124163 124156 124178 124174 124124 124041
          123936 123814 123680 123536 123384 123225 123060 122889 122714 122534 122350 122161
          121966 121764 121554 121331 121089 120820 120505 120113 119857 119749 119600 119442
          119289 119145 119010 118881 118756 118632 118510 118388 118266 118145 118023 117902
          122729 122696 122664 122635 122609 122588 122574 122567 122545 122490 122416 122325
          122220 122103 121978 121845 121706 121561 121410 121253 121092 120926 120755 120578
          120395 120204 120002 119786 119550 119285 118978 118616 118399 118320 118206 118081
          117957 117836 117718 117602 117487 117372 117256 117140 117023 116907 116789 116672
          121061 121046 121031 121015 121001 120988 120978 120972 120922 120826 120726 120622
          120514 120401 120284 120162 120034 119902 119765 119622 119475 119322 119165 119001
          118832 118653 118465 118262 118039 117791 117508 117183 116994 116931 116842 116742
          116640 116538 116434 116329 116222 116114 116004 115893 115781 115669 115556 115442
          119394 119396 119397 119395 119391 119385 119378 119372 119299 119164 119040 118924
          118813 118704 118594 118483 118368 118249 118125 117996 117862 117724 117581 117432
          117277 117114 116942 116757 116555 116331 116080 115795 115631 115579 115507 115425
          115340 115250 115157 115061 114961 114858 114754 114648 114540 114432 114322 114212
          117727 117749 117766 117778 117784 117783 117777 117770 117668 117492 117345 117221
          117110 117007 116907 116808 116706 116600 116490 116375 116255 116131 116002 115868
          115729 115584 115431 115268 115093 114900 114685 114443 114303 114258 114197 114128
          114054 113974 113888 113798 113704 113606 113506 113404 113300 113195 113089 112983
          116063 116105 116140 116167 116183 116186 116178 116164 116011 115791 115629 115504
          115399 115306 115219 115134 115048 114956 114860 114758 114652 114542 114428 114310
          114188 114062 113930 113793 113647 113490 113317 113123 113007 112965 112911 112849
          112781 112707 112626 112541 112451 112357 112261 112162 112062 111960 111857 111753
          114402 114467 114524 114567 114594 114600 114584 114549 114278 114030 113877 113766
          113677 113599 113529 113462 113394 113317 113233 113144 113052 112956 112857 112755
          112650 112543 112434 112324 112212 112095 111971 111833 111742 111697 111645 111586
          111521 111450 111372 111289 111202 111112 111018 110922 110825 110725 110625 110524
          112745 112839 112920 112984 113025 113037 113009 112911 112648 112482 112362 112269
          112191 112123 112062 112006 111951 111880 111803 111720 111634 111545 111453 111359
          111263 111166 111069 110974 110880 110784 110689 110596 110512 110454 110397 110337
          110272 110200 110124 110043 109957 109869 109778 109684 109589 109492 109394 109296
          111095 111222 111334 111424 111486 111515 111503 111437 111311 111196 111099 111016
          110944 110879 110817 110757 110693 110615 110529 110439 110346 110251 110154 110056
          109957 109862 109772 109688 109607 109528 109451 109373 109297 109230 109165 109100
          109031 108958 108881 108800 108716 108629 108540 108448 108355 108260 108164 108067
          109453 109621 109769 109891 109981 110035 110049 110024 109962 109891 109821 109754
          109691 109631 109572 109512 109449 109371 109286 109197 109105 109012 108916 108819
          108721 108628 108540 108458 108378 108301 108224 108149 108075 108004 107935 107866
          107794 107720 107642 107561 107478 107392 107304 107213 107122 107028 106934 106839
          107821 108040 108232 108390 108511 108593 108637 108645 108624 108586 108539 108488
          108435 108381 108326 108268 108207 108129 108046 107958 107867 107774 107680 107584
          107487 107395 107310 107229 107150 107074 106998 106923 106850 106778 106706 106634
          106560 106484 106406 106325 106242 106157 106070 105981 105890 105798 105705 105612
          106206 106486 106728 106926 107079 107190 107261 107296 107303 107289 107261 107224
          107181 107133 107082 107027 106967 106890 106807 106721 106631 106539 106445 106350
          106254 106164 106080 106000 105923 105847 105772 105697 105624 105550 105477 105403
          105328 105251 105173 105092 105009 104924 104837 104749 104659 104569 104477 104384
          104614 104970 105267 105506 105691 105827 105920 105976 106003 106006 105992 105966
          105930 105888 105841 105788 105730 105654 105572 105486 105397 105306 105213 105118
          105022 104933 104851 104773 104696 104621 104546 104471 104397 104323 104249 104174
          104098 104021 103941 103861 103778 103693 103607 103519 103430 103340 103249 103157
          103066 103512 103865 104141 104351 104506 104616 104686 104726 104741 104736 104717
          104687 104648 104604 104553 104496 104420 104339 104254 104166 104075 103982 103887
          103791 103704 103623 103546 103470 103394 103319 103245 103171 103096 103021 102946
          102869 102791 102712 102631 102548 102464 102378 102290 102202 102112 102022 101931
          101609 102146 102542 102841 103066 103232 103350 103428 103474 103494 103494 103479
          103451 103415 103372 103322 103266 103190 103109 103025 102937 102846 102753 102658
          102561 102476 102397 102319 102243 102168 102093 102019 101944 101869 101794 101718
          101642 101564 101484 101403 101320 101236 101150 101063 100975 100885 100795 100704
        </DataArray>
        <DataArray type="Float32" Name="pressure_n" NumberOfComponents="1" format="ascii">
          152046 151209 150510 149904 149368 148886 148449 148047 147676 147330 147006 146700
          146409 146132 145865 145609 145360 145118 144883 144653 144427 144205 143987 143773
          143562 143353 143148 142946 142747 142552 142360 142172 142096 141928 141751 141565
          141370 141167 140957 140741 140521 140299 140079 139861 139647 139437 139229 139009
          150591 149845 149189 148608 148087 147616 147186 146791 146425 146083 145762 145458
          145170 144894 144630 144374 144127 143886 143651 143422 143197 142975 142758 142543
          142332 142124 141919 141717 141518 141322 141130 140940 140838 140675 140491 140297
          140094 139883 139664 139439 139210 138981 138752 138528 138310 138099 137897 137698
          149045 148392 147795 147251 146757 146305 145890 145506 145148 144814 144499 144201
          143918 143646 143385 143132 142887 142648 142415 142186 141962 141742 141525 141311
          141100 140892 140687 140484 140285 140089 139896 139706 139608 139440 139254 139058
          138852 138638 138417 138191 137962 137732 137505 137282 137066 136859 136660 136466
          147458 146884 146346 145846 145384 144957 144561 144193 143849 143526 143221 142930
          142653 142387 142131 141882 141640 141404 141173 140947 140724 140505 140289 140075
          139865 139657 139451 139249 139049 138853 138659 138468 138376 138203 138015 137817
          137609 137392 137169 136941 136712 136482 136256 136036 135824 135620 135425 135235
          145848 145341 144858 144403 143976 143578 143206 142857 142529 142220 141926 141646
          141378 141119 140869 140625 140388 140156 139928 139704 139483 139265 139050 138837
          138627 138419 138214 138011 137811 137613 137419 137228 137141 136964 136773 136572
          136361 136142 135917 135688 135457 135229 135005 134788 134580 134380 134188 134002
          144224 143775 143343 142930 142540 142173 141826 141500 141191 140898 140619 140351
          140093 139843 139600 139363 139131 138903 138678 138457 138238 138022 137808 137596
          137386 137179 136973 136770 136569 136371 136176 135984 135902 135721 135528 135324
          135110 134888 134660 134429 134199 133972 133751 133537 133333 133138 132950 132768
          142591 142193 141807 141436 141082 140746 140427 140125 139837 139563 139299 139045
          138799 138560 138325 138095 137869 137646 137426 137207 136991 136777 136564 136353
          136144 135936 135730 135526 135325 135126 134930 134737 134657 134475 134279 134071
          133853 133628 133398 133166 132936 132711 132493 132285 132085 131895 131712 131533
          140952 140600 140256 139924 139606 139302 139012 138735 138470 138216 137971 137732
          137499 137271 137046 136824 136605 136387 136171 135956 135743 135530 135319 135109
          134900 134692 134485 134281 134078 133878 133680 133486 133410 133225 133025 132813
          132591 132362 132130 131898 131669 131447 131234 131030 130837 130651 130472 130293
          139309 138998 138694 138399 138115 137843 137583 137333 137093 136861 136635 136413
          136195 135979 135764 135551 135338 135126 134915 134703 134493 134282 134072 133863
          133654 133446 133239 133033 132829 132627 132427 132232 132158 131969 131765 131548
          131322 131090 130856 130624 130398 130180 129972 129775 129587 129407 129232 129050
          137662 137389 137122 136863 136613 136373 136143 135922 135708 135500 135295 135091
          134888 134685 134481 134276 134071 133865 133658 133450 133242 133034 132825 132617
          132408 132199 131991 131783 131577 131373 131171 130973 130901 130708 130499 130277
          130046 129811 129576 129345 129123 128910 128709 128518 128336 128162 127985 127805
          136011 135774 135542 135317 135100 134893 134694 134503 134318 134135 133953 133769
          133582 133392 133199 133003 132805 132604 132402 132198 131993 131786 131579 131371
          131162 130952 130743 130533 130324 130116 129910 129709 129639 129440 129224 128996
          128761 128523 128289 128061 127844 127639 127445 127261 127085 126913 126735 126559
          134359 134155 133956 133763 133579 133404 133238 133079 132925 132771 132613 132449
          132278 132102 131919 131732 131541 131345 131147 130947 130744 130539 130333 130125
          129916 129706 129494 129282 129069 128857 128646 128439 128370 128164 127940 127705
          127465 127227 126994 126772 126562 126365 126179 126003 125833 125658 125483 125314
          132704 132531 132363 132201 132048 131906 131773 131651 131532 131410 131278 131135
          130981 130817 130645 130465 130280 130090 129895 129698 129497 129294 129088 128881
          128671 128460 128247 128031 127814 127596 127378 127162 127091 126875 126641 126400
          126158 125920 125693 125479 125278 125090 124913 124744 124574 124401 124232 124072
          131046 130902 130763 130631 130508 130397 130300 130218 130144 130059 129955 129833
          129694 129541 129377 129205 129024 128838 128647 128451 128252 128051 127846 127639
          127429 127216 127001 126782 126561 126335 126106 125878 125800 125568 125325 125079
          124837 124604 124386 124182 123992 123815 123647 123481 123310 123143 122984 122832
          129387 129269 129156 129051 128955 128874 128812 128776 128767 128726 128651 128546
          128420 128276 128119 127951 127775 127591 127402 127209 127011 126810 126606 126399
          126189 125975 125758 125537 125311 125077 124835 124585 124484 124234 123983 123738
          123501 123279 123074 122883 122706 122539 122379 122211 122046 121888 121738 121595
          127725 127632 127542 127460 127388 127331 127298 127308 127421 127428 127375 127283
          127164 127025 126871 126706 126532 126350 126163 125970 125773 125573 125369 125162
          124952 124738 124520 124297 124067 123828 123573 123291 123114 122852 122608 122374
          122153 121948 121759 121584 121420 121264 121103 120940 120784 120636 120496 120363
          126061 125990 125922 125859 125806 125765 125741 125736 125860 125903 125864 125781
          125669 125538 125392 125235 125068 124895 124715 124530 124341 124147 123950 123749
          123544 123334 123118 122893 122657 122401 122107 121721 121558 121397 121198 120994
          120798 120616 120446 120287 120136 119983 119824 119671 119526 119389 119258 119132
          124395 124344 124295 124250 124212 124182 124163 124156 124178 124174 124124 124041
          123936 123814 123680 123536 123384 123225 123060 122889 122714 122534 122350 122161
          121966 121764 121554 121331 121089 120820 120505 120113 120048 119937 119781 119612
          119446 119287 119137 118993 118850 118697 118548 118407 118273 118146 118023 117902
          122729 122696 122664 122635 122609 122588 122574 122567 122545 122490 122416 122325
          122220 122103 121978 121845 121706 121561 121410 121253 121092 120926 120755 120578
          120395 120204 120002 119786 119550 119285 118978 118616 118594 118509 118384 118245
          118105 117968 117834 117702 117559 117415 117278 117148 117025 116907 116789 116672
          121061 121046 121031 121015 121001 120988 120978 120972 120922 120826 120726 120622
          120514 120401 120284 120162 120034 119902 119765 119622 119475 119322 119165 119001
          118832 118653 118465 118262 118039 117791 117508 117194 117191 117118 117014 116898
          116779 116659 116540 116408 116272 116140 116015 115895 115781 115669 115556 115442
          119394 119396 119397 119395 119391 119385 119378 119372 119299 119164 119040 118924
          118813 118704 118594 118483 118368 118249 118125 117996 117862 117724 117581 117432
          117277 117114 116942 116757 116555 116331 116080 115832 115830 115764 115673 115573
          115468 115361 115246 115118 114992 114872 114757 114648 114540 114432 114322 114212
          117727 117749 117766 117778 117784 117783 117777 117770 117668 117492 117345 117221
          117110 117007 116907 116808 116706 116600 116490 116375 116255 116131 116003 115869
          115731 115586 115433 115271 115096 114905 114692 114518 114504 114440 114358 114267
          114173 114073 113955 113835 113721 113612 113507 113404 113300 113195 113089 112983
          116063 116105 116140 116167 116183 116186 116178 116164 116011 115791 115629 115504
          115399 115306 115236 115180 115118 115041 114956 114865 114771 114673 114571 114465
          114354 114240 114123 114001 113875 113742 113600 113477 113209 113143 113064 112979
          112890 112786 112672 112562 112458 112358 112261 112162 112062 111960 111857 111753
          114402 114467 114524 114567 114594 114600 114584 114549 114278 114030 113877 113766
          113677 113711 113951 113951 113938 113889 113827 113758 113683 113603 113520 113433
          113342 113248 113153 113058 112962 112864 112763 112653 111946 111870 111788 111705
          111614 111503 111397 111299 111204 111112 111018 110922 110825 110725 110625 110524
          112745 112839 112920 112984 113025 113037 113009 112911 112648 112482 112362 112269
          112191 112172 112173 112161 112148 112099 112037 111967 111892 111813 111730 111643
          111551 111457 111363 111267 111172 111074 110972 110863 110718 110616 110527 110440
          110331 110227 110134 110045 109958 109869 109778 109684 109589 109492 109394 109296
          111095 111222 111334 111424 111486 111515 111503 111437 111311 111196 111099 111016
          110944 110879 110857 110855 110841 110772 110691 110604 110512 110418 110322 110223
          110119 110014 109912 109814 109719 109622 109516 109411 109314 109234 109166 109100
          109031 108958 108881 108800 108716 108629 108540 108448 108355 108260 108164 108067
          109453 109621 109769 109891 109981 110035 110049 110024 109962 109891 109821 109754
          109691 109631 109610 109608 109597 109527 109445 109358 109266 109173 109077 108978
          108874 108769 108667 108569 108470 108362 108259 108163 108078 108005 107935 107866
          107794 107720 107642 107561 107478 107392 107304 107213 107122 107028 106934 106839
          107821 108040 108232 108390 108511 108593 108637 108645 108624 108586 108539 108488
          108435 108381 108364 108365 108357 108286 108205 108118 108028 107935 107841 107743
          107638 107532 107431 107334 107229 107121 107021 106931 106851 106778 106706 106634
          106560 106484 106406 106325 106242 106157 106070 105981 105890 105798 105705 105612
          106206 106486 106728 106926 107079 107190 107261 107296 107303 107289 107261 107224
          107181 107133 107119 107123 107119 107048 106967 106881 106792 106700 106606 106509
          106402 106296 106195 106096 105986 105881 105786 105701 105624 105550 105477 105403
          105328 105251 105173 105092 105009 104924 104837 104749 104659 104569 104477 104384
          104614 104970 105267 105506 105691 105827 105920 105976 106003 106006 105992 105966
          105930 105888 105876 105885 105884 105813 105732 105647 105558 105467 105374 105277
          105167 105060 104960 104853 104742 104642 104553 104472 104397 104323 104249 104174
          104098 104021 103941 103861 103778 103693 103607 103519 103430 103340 103249 103157
          103066 103512 103865 104141 104351 104506 104616 104686 104726 104741 104736 104717
          104687 104648 104636 104650 104652 104580 104500 104415 104327 104236 104143 104047
          103931 103823 103720 103604 103498 103405 103322 103245 103171 103096 103021 102946
          102869 102791 102712 102631 102548 102464 102378 102290 102202 102112 102022 101931
          101609 102146 102542 102841 103066 103232 103350 103428 103474 103494 103494 103479
          103451 103415 103396 103415 103425 103351 103270 103185 103098 103007 102914 102818
          102693 102583 102465 102352 102256 102171 102093 102019 101944 101869 101794 101718
          101642 101564 101484 101403 101320 101236 101150 101063 100975 100885 100795 100704
        </DataArray>
        <DataArray type="Float32" Name="density_w" NumberOfComponents="1" format="ascii">
          1000 1000 1000 1000 1000 1000 1000 1000 1000 1000 1000 1000
          1000 1000 1000 1000 1000 1000 1000 1000 1000 1000 1000 1000
          1000 1000 1000 1000 1000 1000 1000 1000 1000 1000 1000 1000
          1000 1000 1000 1000 1000 1000 1000 1000 1000 1000 1000 1000
          1000 1000 1000 1000 1000 1000 1000 1000 1000 1000 1000 1000
          1000 1000 1000 1000 1000 1000 1000 1000 1000 1000 1000 1000
          1000 1000 1000 1000 1000 1000 1000 1000 1000 1000 1000 1000
          1000 1000 1000 1000 1000 1000 1000 1000 1000 1000 1000 1000
          1000 1000 1000 1000 1000 1000 1000 1000 1000 1000 1000 1000
          1000 1000 1000 1000 1000 1000 1000 1000 1000 1000 1000 1000
          1000 1000 1000 1000 1000 1000 1000 1000 1000 1000 1000 1000
          1000 1000 1000 1000 1000 1000 1000 1000 1000 1000 1000 1000
          1000 1000 1000 1000 1000 1000 1000 1000 1000 1000 1000 1000
          1000 1000 1000 1000 1000 1000 1000 1000 1000 1000 1000 1000
          1000 1000 1000 1000 1000 1000 1000 1000 1000 1000 1000 1000
          1000 1000 1000 1000 1000 1000 1000 1000 1000 1000 1000 1000
          1000 1000 1000 1000 1000 1000 1000 1000 1000 1000 1000 1000
          1000 1000 1000 1000 1000 1000 1000 1000 1000 1000 1000 1000
          1000 1000 1000 1000 1000 1000 1000 1000 1000 1000 1000 1000
          1000 1000 1000 1000 1000 1000 1000 1000 1000 1000 1000 1000
          1000 1000 1000 1000 1000 1000 1000 1000 1000 1000 1000 1000
          1000 1000 1000 1000 1000 1000 1000 1000 1000 1000 1000 1000
          1000 1000 1000 1000 1000 1000 1000 1000 1000 1000 1000 1000
          1000 1000 1000 1000 1000 1000 1000 1000 1000 1000 1000 1000
          1000 1000 1000 1000 1000 1000 1000 1000 1000 1000 1000 1000
          1000 1000 1000 1000 1000 1000 1000 1000 1000 1000 1000 1000
          1000 1000 1000 1000 1000 1000 1000 1000 1000 1000 1000 1000
          1000 1000 1000 1000 1000 1000 1000 1000 1000 1000 1000 1000
          1000 1000 1000 1000 1000 1000 1000 1000 1000 1000 1000 1000
          1000 1000 1000 1000 1000 1000 1000 1000 1000 1000 1000 1000
          1000 1000 1000 1000 1000 1000 1000 1000 1000 1000 1000 1000
          1000 1000 1000 1000 1000 1000 1000 1000 1000 1000 1000 1000
          1000 1000 1000 1000 1000 1000 1000 1000 1000 1000 1000 1000
          1000 1000 1000 1000 1000 1000 1000 1000 1000 1000 1000 1000
          1000 1000 1000 1000 1000 1000 1000 1000 1000 1000 1000 1000
          1000 1000 1000 1000 1000 1000 1000 1000 1000 1000 1000 1000
          1000 1000 1000 1000 1000 1000 1000 1000 1000 1000 1000 1000
          1000 1000 1000 1000 1000 1000 1000 1000 1000 1000 1000 1000
          1000 1000 1000 1000 1000 1000 1000 1000 1000 1000 1000 1000
          1000 1000 1000 1000 1000 1000 1000 1000 1000 1000 1000 1000
          1000 1000 1000 1000 1000 1000 1000 1000 1000 1000 1000 1000
          1000 1000 1000 1000 1000 1000 1000 1000 1000 1000 1000 1000
          1000 1000 1000 1000 1000 1000 1000 1000 1000 1000 1000 1000
          1000 1000 1000 1000 1000 1000 1000 1000 1000 1000 1000 1000
          1000 1000 1000 1000 1000 1000 1000 1000 1000 1000 1000 1000
          1000 1000 1000 1000 1000 1000 1000 1000 1000 1000 1000 1000
          1000 1000 1000 1000 1000 1000 1000 1000 1000 1000 1000 1000
          1000 1000 1000 1000 1000 1000 1000 1000 1000 1000 1000 1000
          1000 1000 1000 1000 1000 1000 1000 1000 1000 1000 1000 1000
          1000 1000 1000 1000 1000 1000 1000 1000 1000 1000 1000 1000
          1000 1000 1000 1000 1000 1000 1000 1000 1000 1000 1000 1000
          1000 1000 1000 1000 1000 1000 1000 1000 1000 1000 1000 1000
          1000 1000 1000 1000 1000 1000 1000 1000 1000 1000 1000 1000
          1000 1000 1000 1000 1000 1000 1000 1000 1000 1000 1000 1000
          1000 1000 1000 1000 1000 1000 1000 1000 1000 1000 1000 1000
          1000 1000 1000 1000 1000 1000 1000 1000 1000 1000 1000 1000
          1000 1000 1000 1000 1000 1000 1000 1000 1000 1000 1000 1000
          1000 1000 1000 1000 1000 1000 1000 1000 1000 1000 1000 1000
          1000 1000 1000 1000 1000 1000 1000 1000 1000 1000 1000 1000
          1000 1000 1000 1000 1000 1000 1000 1000 1000 1000 1000 1000
          1000 1000 1000 1000 1000 1000 1000 1000 1000 1000 1000 1000
          1000 1000 1000 1000 1000 1000 1000 1000 1000 1000 1000 1000
          1000 1000 1000 1000 1000 1000 1000 1000 1000 1000 1000 1000
          1000 1000 1000 1000 1000 1000 1000 1000 1000 1000 1000 1000
          1000 1000 1000 1000 1000 1000 1000 1000 1000 1000 1000 1000
          1000 1000 1000 1000 1000 1000 1000 1000 1000 1000 1000 1000
          1000 1000 1000 1000 1000 1000 1000 1000 1000 1000 1000 1000
          1000 1000 1000 1000 1000 1000 1000 1000 1000 1000 1000 1000
          1000 1000 1000 1000 1000 1000 1000 1000 1000 1000 1000 1000
          1000 1000 1000 1000 1000 1000 1000 1000 1000 1000 1000 1000
          1000 1000 1000 1000 1000 1000 1000 1000 1000 1000 1000 1000
          1000 1000 1000 1000 1000 1000 1000 1000 1000 1000 1000 1000
          1000 1000 1000 1000 1000 1000 1000 1000 1000 1000 1000 1000
          1000 1000 1000 1000 1000 1000 1000 1000 1000 1000 1000 1000
          1000 1000 1000 1000 1000 1000 1000 1000 1000 1000 1000 1000
          1000 1000 1000 1000 1000 1000 1000 1000 1000 1000 1000 1000
          1000 1000 1000 1000 1000 1000 1000 1000 1000 1000 1000 1000