<?xml version="1.0"?>
<VTKFile type="UnstructuredGrid" version="0.1" byte_order="LittleEndian">
  <UnstructuredGrid>
    <Piece NumberOfCells="1536" NumberOfPoints="1617">
      <PointData Scalars="pressure_wetting" Vectors="intrinsicPerm[0]">
        <DataArray type="Float32" Name="pressure_wetting" NumberOfComponents="1" format="ascii">
          153059 152178 151771 150879 151425 150148 150778 149514 150208 148953 149698 148449
          149236 147990 148812 147570 148420 147181 148055 146818 147713 146477 147389 146155
          147081 145848 146787 145555 146505 145274 146231 145001 145966 144737 145708 144479
          145456 144227 145209 143980 144966 143738 144727 143499 144491 143263 144258 143031
          144028 142801 143801 142573 143576 142348 143354 142126 143134 141906 142916 141689
          142702 141474 142490 141262 142280 141053 142074 140846 141871 140643 141671 140443
          141473 140246 141279 140052 141088 139861 140900 139673 140715 139487 140531 139304
          140350 139123 140171 138944 139992 138766 139812 138587 139628 138407 139431 138222
          139130 138071 150194 149450 148778 148180 147642 147154 146708 146296 145915 145558
          145223 144905 144602 144312 144033 143763 143500 143244 142994 142748 142506 142268
          142032 141800 141570 141343 141119 140896 140676 140459 140244 140031 139822 139616
          139412 139212 139015 138821 138630 138442 138257 138075 137895 137716 137539 137364
          137189 137020 136863 148571 147934 147336 146785 146281 145817 145390 144994 144625
          144278 143951 143640 143344 143059 142784 142517 142258 142004 141755 141511 141271
          141033 140799 140567 140338 140111 139886 139664 139444 139226 139011 138798 138588
          138382 138178 137978 137781 137587 137396 137209 137025 136843 136664 136487 136312
          136139 135969 135803 135641 146929 146375 145844 145344 144878 144445 144042 143665
          143311 142978 142663 142362 142073 141795 141526 141264 141009 140759 140513 140271
          140032 139796 139563 139332 139103 138876 138652 138429 138209 137991 137775 137562
          137352 137145 136941 136740 136543 136350 136160 135973 135790 135609 135432 135256
          135083 134913 134745 134579 134416 145278 144791 144319 143869 143443 143043 142666
          142312 141978 141662 141360 141071 140792 140523 140261 140005 139755 139509 139266
          139027 138791 138556 138324 138094 137866 137640 137415 137192 136972 136753 136537
          136323 136112 135905 135700 135499 135302 135109 134919 134734 134551 134372 134196
          134023 133852 133684 133517 133353 133190 143622 143192 142772 142368 141982 141616
          141269 140940 140628 140330 140044 139769 139503 139243 138990 138741 138497 138255
          138017 137781 137547 137315 137084 136855 136627 136401 136176 135953 135732 135513
          135296 135081 134870 134661 134456 134255 134057 133864 133675 133491 133310 133133
          132959 132788 132619 132452 132288 132125 131963 141961 141581 141209 140848 140501
          140169 139853 139551 139263 138986 138718 138459 138206 137958 137714 137473 137235
          136999 136765 136532 136301 136071 135842 135614 135387 135161 134936 134713 134491
          134271 134052 133837 133624 133414 133208 133006 132808 132615 132427 132244 132065
          131890 131718 131549 131383 131219 131057 130896 130736 140298 139963 139634 139314
          139004 138707 138422 138149 137886 137632 137384 137142 136904 136668 136435 136202
          135971 135741 135512 135283 135054 134827 134599 134372 134146 133920 133695 133471
          133248 133026 132807 132589 132375 132164 131956 131753 131554 131361 131174 130993
          130816 130644 130475 130309 130145 129984 129825 129666 129509 138633 138339 138050
          137768 137495 137233 136980 136737 136501 136271 136045 135822 135599 135377 135154
          134931 134707 134483 134258 134033 133807 133582 133356 133130 132904 132678 132453
          132228 132003 131780 131558 131339 131123 130910 130701 130495 130294 130101 129916
          129737 129563 129394 129228 129066 128906 128748 128591 128436 128281 136966 136710
          136459 136213 135976 135748 135528 135316 135110 134907 134704 134500 134294 134085
          133874 133660 133443 133225 133004 132783 132560 132337 132112 131888 131662 131436
          131210 130984 130758 130532 130308 130086 129867 129652 129440 129230 129027 128834
          128651 128475 128305 128140 127979 127820 127664 127509 127356 127204 127053 135297
          135077 134861 134650 134448 134254 134069 133891 133716 133542 133364 133182 132992
          132797 132596 132391 132181 131968 131752 131534 131314 131093 130870 130646 130421
          130194 129968 129740 129512 129283 129055 128829 128606 128389 128172 127958 127752
          127559 127379 127208 127043 126883 126726 126572 126420 126270 126121 125973 125825
          133628 133440 133257 133079 132910 132751 132602 132460 132322 132181 132031 131869
          131697 131514 131324 131126 130922 130714 130502 130287 130070 129850 129628 129405
          129180 128954 128726 128496 128266 128034 127801 127569 127341 127119 126894 126674
          126467 126276 126100 125935 125777 125622 125471 125322 125175 125029 124884 124740
          124597 131957 131800 131647 131500 131362 131237 131125 131027 130933 130829 130708
          130568 130411 130240 130058 129867 129668 129464 129256 129043 128827 128609 128388
          128166 127941 127714 127485 127255 127021 126785 126547 126306 126067 125838 125601
          125375 125169 124983 124814 124657 124506 124359 124213 124070 123928 123787 123647
          123508 123368 130285 130155 130030 129912 129803 129708 129634 129587 129554 129499
          129406 129283 129139 128976 128801 128615 128420 128219 128013 127802 127588 127370
          127150 126928 126704 126477 126247 126015 125780 125540 125295 125044 124785 124535
          124280 124055 123856 123680 123523 123375 123233 123093 122954 122817 122680 122545
          122409 122275 122140 128611 128507 128407 128314 128230 128161 128113 128111 128220
          128205 128132 128021 127883 127726 127554 127371 127178 126979 126774 126564 126351
          126134 125915 125693 125469 125242 125012 124779 124542 124299 124049 123787 123513
          123171 122913 122709 122529 122370 122226 122090 121957 121825 121694 121563 121432
          121302 121171 121041 120911 126936 126855 126778 126706 126643 126592 126560 126542
          126664 126691 126632 126530 126401 126252 126089 125914 125730 125540 125343 125142
          124937 124728 124516 124301 124082 123861 123635 123405 123167 122920 122658 122365
          121972 121625 121503 121345 121195 121056 120928 120804 120680 120557 120433 120308
          120183 120058 119933 119808 119683 125261 125200 125143 125090 125044 125007 124983
          124974 124980 124967 124906 124810 124690 124554 124404 124244 124076 123901 123721
          123535 123345 123151 122953 122752 122546 122335 122119 121895 121660 121409 121134
          120815 120420 120178 120095 119981 119860 119743 119630 119518 119404 119289 119172
          119054 118935 118815 118695 118575 118454 123584 123543 123503 123467 123435 123409
          123392 123384 123355 123293 123213 123113 122997 122868 122729 122582 122428 122268
          122103 121932 121758 121578 121395 121207 121014 120816 120610 120395 120167 119921
          119649 119339 118982 118777 118717 118630 118533 118435 118336 118235 118130 118023
          117912 117800 117687 117573 117457 117342 117226 121907 121883 121860 121839 121819
          121803 121792 121785 121736 121641 121540 121432 121316 121192 121063 120927 120786
          120641 120490 120334 120174 120010 119841 119667 119488 119303 119110 118907 118692
          118458 118201 117914 117594 117414 117367 117297 117218 117135 117047 116956 116859
          116758 116655 116548 116440 116331 116220 116109 115997 120230 120223 120216 120209
          120201 120193 120186 120181 120117 119996 119876 119759 119641 119523 119402 119278
          119150 119018 118882 118741 118595 118446 118291 118132 117968 117798 117620 117433
          117234 117018 116783 116524 116239 116081 116041 115983 115916 115844 115766 115682
          115592 115497 115399 115298 115195 115090 114984 114877 114769 118553 118564 118573
          118579 118582 118581 118578 118574 118495 118348 118211 118085 117968 117855 117744
          117632 117518 117400 117278 117152 117021 116886 116747 116603 116454 116300 116139
          115970 115791 115599 115390 115162 114911 114772 114737 114686 114628 114563 114492
          114414 114329 114240 114147 114050 113951 113850 113748 113645 113541 116876 116906
          116933 116953 116967 116972 116971 116966 116867 116687 116533 116404 116291 116187
          116087 115988 115889 115786 115679 115567 115451 115331 115206 115078 114945 114808
          114666 114518 114362 114196 114017 113821 113606 113485 113452 113406 113353 113293
          113226 113152 113072 112987 112897 112805 112710 112612 112513 112413 112313 115201
          115253 115298 115335 115360 115371 115369 115359 115219 114993 114831 114708 114605
          114514 114429 114347 114263 114176 114084 113987 113885 113779 113670 113557 113441
          113321 113199 113073 112942 112806 112660 112501 112322 112219 112186 112142 112090
          112032 111968 111897 111819 111737 111651 111562 111470 111376 111280 111183 111085
          113528 113604 113673 113728 113767 113783 113775 113758 113481 113235 113095 112992
          112908 112835 112768 112706 112642 112572 112494 112411 112323 112232 112137 112039
          111939 111837 111734 111632 111529 111425 111316 111200 111065 110976 110939 110891
          110839 110781 110717 110647 110572 110492 110408 110322 110232 110141 110047 109953
          109858 111858 111964 112060 112139 112195 112221 112207 112115 111849 111702 111593
          111508 111436 111374 111318 111265 111214 111154 111083 111006 110925 110840 110753
          110663 110571 110477 110385 110294 110205 110120 110033 109942 109848 109770 109707
          109654 109598 109538 109473 109403 109329 109250 109169 109084 108997 108907 108816
          108724 108631 110191 110335 110465 110573 110653 110697 110696 110635 110529 110421
          110333 110258 110192 110133 110076 110021 109963 109894 109817 109733 109646 109556
          109464 109370 109275 109182 109094 109010 108932 108856 108782 108708 108631 108557
          108490 108428 108366 108302 108235 108164 108090 108012 107932 107849 107763 107676
          107586 107496 107404 108529 108720 108892 109036 109146 109216 109244 109230 109183
          109122 109060 109000 108943 108888 108834 108779 108721 108652 108575 108492 108406
          108317 108226 108133 108040 107948 107861 107780 107703 107628 107555 107482 107409
          107337 107268 107202 107136 107069 107000 106928 106854 106777 106697 106616 106532
          106446 106358 106268 106177 106874 107124 107347 107533 107678 107779 107838 107859
          107851 107822 107783 107738 107691 107642 107591 107538 107482 107413 107336 107254
          107169 107081 106991 106899 106806 106715 106630 106551 106475 106401 106329 106257
          106185 106114 106044 105975 105907 105838 105767 105695 105620 105544 105465 105385
          105303 105218 105132 105043 104951 105230 105556 105841 106073 106253 106384 106471
          106519 106537 106532 106511 106479 106441 106397 106350 106300 106244 106176 106100
          106018 105934 105846 105757 105666 105573 105484 105400 105322 105247 105174 105103
          105031 104960 104889 104818 104749 104679 104608 104537 104464 104389 104313 104235
          104156 104075 103993 103908 103820 103726 103604 104034 104389 104667 104879 105034
          105142 105210 105246 105257 105248 105227 105195 105156 105112 105064 105010 104942
          104866 104785 104701 104614 104525 104435 104342 104253 104171 104095 104021 103948
          103877 103805 103734 103663 103592 103522 103451 103380 103308 103235 103160 103084
          103007 102928 102849 102769 102688 102602 102505 102026 102601 103014 103325 103560
          103732 103854 103934 103980 104000 103999 103983 103956 103921 103879 103832 103778
          103711 103635 103554 103471 103385 103296 103205 103112 103024 102944 102868 102794
          102722 102651 102579 102508 102437 102366 102295 102224 102152 102080 102007 101932
          101856 101779 101702 101624 101546 101471 101400 101296 100738 101302 101735 102059
          102302 102480 102606 102691 102740 102763 102765 102751 102726 102691 102650 102603
          102551 102484 102407 102327 102243 102157 102069 101978 101885 101796 101717 101642
          101568 101496 101425 101353 101282 101211 101140 101069 100998 100926 100853 100780
          100705 100629 100553 100475 100398 100322 100250 100192 100237
        </DataArray>
        <DataArray type="Float32" Name="pressure_nonwetting" NumberOfComponents="1" format="ascii">
          153059 152178 151771 150879 151425 150148 150778 149514 150208 148953 149698 148449
          149236 147990 148812 147570 148420 147181 148055 146818 147713 146477 147389 146155
          147081 145848 146787 145555 146505 145274 146231 145001 145966 144737 145708 144479
          145456 144227 145209 143980 144966 143738 144727 143499 144491 143263 144258 143031
          144028 142801 143801 142573 143576 142348 143354 142126 143134 141906 142916 141689
          142702 141474 142490 141262 142280 141053 142074 140846 141871 140643 141671 140443
          141473 140246 141279 140052 141088 139861 140900 139673 140715 139487 140531 139304
          140350 139123 140171 138944 139992 138766 139812 138587 139628 138407 139431 138222
          139130 138071 150194 149450 148778 148180 147642 147154 146708 146296 145915 145558
          145223 144905 144602 144312 144033 143763 143500 143244 142994 142748 142506 142268
          142032 141800 141570 141343 141119 140896 140676 140459 140244 140031 139822 139616
          139412 139212 139015 138821 138630 138442 138257 138075 137895 137716 137539 137364
          137189 137020 136863 148571 147934 147336 146785 146281 145817 145390 144994 144625
          144278 143951 143640 143344 143059 142784 142517 142258 142004 141755 141511 141271
          141033 140799 140567 140338 140111 139886 139664 139444 139226 139011 138798 138588
          138382 138178 137978 137781 137587 137396 137209 137025 136843 136664 136487 136312
          136139 135969 135803 135641 146929 146375 145844 145344 144878 144445 144042 143665
          143311 142978 142663 142362 142073 141795 141526 141264 141009 140759 140513 140271
          140032 139796 139563 139332 139103 138876 138652 138429 138209 137991 137775 137562
          137352 137145 136941 136740 136543 136350 136160 135973 135790 135609 135432 135256
          135083 134913 134745 134579 134416 145278 144791 144319 143869 143443 143043 142666
          142312 141978 141662 141360 141071 140792 140523 140261 140005 139755 139509 139266
          139027 138791 138556 138324 138094 137866 137640 137415 137192 136972 136753 136537
          136323 136112 135905 135700 135499 135302 135109 134919 134734 134551 134372 134196
          134023 133852 133684 133517 133353 133190 143622 143192 142772 142368 141982 141616
          141269 140940 140628 140330 140044 139769 139503 139243 138990 138741 138497 138255
          138017 137781 137547 137315 137084 136855 136627 136401 136176 135953 135732 135513
          135296 135081 134870 134661 134456 134255 134057 133864 133675 133491 133310 133133
          132959 132788 132619 132452 132288 132125 131963 141961 141581 141209 140848 140501
          140169 139853 139551 139263 138986 138718 138459 138206 137958 137714 137473 137235
          136999 136765 136532 136301 136071 135842 135614 135387 135161 134936 134713 134491
          134271 134052 133837 133624 133414 133208 133006 132808 132615 132427 132244 132065
          131890 131718 131549 131383 131219 131057 130896 130736 140298 139963 139634 139314
          139004 138707 138422 138149 137886 137632 137384 137142 136904 136668 136435 136202
          135971 135741 135512 135283 135054 134827 134599 134372 134146 133920 133695 133471
          133248 133026 132807 132589 132375 132164 131957 131754 131554 131361 131174 130993
          130816 130644 130475 130309 130145 129984 129825 129666 129509 138633 138339 138050
          137768 137495 137233 136980 136737 136501 136271 136045 135822 135599 135377 135154
          134931 134707 134483 134258 134033 133807 133582 133356 133130 132904 132678 132453
          132228 132003 131780 131558 131339 131123 130911 130715 130513 130300 130101 129916
          129737 129563 129394 129228 129066 128906 128748 128591 128436 128281 136966 136710
          136459 136213 135976 135748 135528 135316 135110 134907 134704 134500 134294 134085
          133874 133660 133443 133225 133004 132783 132560 132337 132112 131888 131662 131436
          131210 130984 130758 130532 130308 130086 129867 129670 129495 129290 129061 128839
          128651 128475 128305 128140 127979 127820 127664 127509 127356 127204 127053 135297
          135077 134861 134650 134448 134254 134069 133891 133716 133542 133364 133182 132992
          132797 132596 132391 132181 131968 131752 131534 131314 131093 130870 130646 130421
          130194 129968 129740 129512 129283 129055 128829 128606 128451 128270 128058 127828
          127585 127380 127208 127043 126883 126726 126572 126420 126270 126121 125973 125825
          133628 133440 133257 133079 132910 132751 132602 132460 132322 132181 132031 131869
          131697 131514 131324 131126 130922 130714 130502 130287 130070 129850 129628 129405
          129180 128954 128726 128496 128266 128034 127801 127569 127341 127221 127010 126790
          126571 126332 126108 125935 125777 125622 125471 125322 125175 125029 124884 124740
          124597 131957 131800 131647 131500 131362 131237 131125 131027 130933 130829 130708
          130568 130411 130240 130058 129867 129668 129464 129256 129043 128827 128609 128388
          128166 127941 127714 127485 127255 127021 126785 126547 126306 126067 125955 125728
          125501 125283 125063 124833 124658 124506 124359 124213 124070 123928 123787 123647
          123508 123368 130285 130155 130030 129912 129803 129708 129634 129587 129554 129499
          129406 129283 129139 128976 128801 128615 128420 128219 128013 127802 127588 127370
          127150 126928 126704 126477 126247 126015 125780 125540 125295 125044 124785 124664
          124419 124189 123977 123774 123549 123376 123233 123093 122954 122817 122680 122545
          122409 122275 122140 128611 128507 128407 128314 128230 128161 128113 128111 128220
          128205 128132 128021 127883 127726 127554 127371 127178 126979 126774 126564 126351
          126134 125915 125693 125469 125242 125012 124779 124542 124299 124049 123787 123513
          123313 123061 122850 122654 122467 122254 122091 121957 121825 121694 121563 121432
          121302 121171 121041 120911 126936 126855 126778 126706 126643 126592 126560 126542
          126664 126691 126632 126530 126401 126252 126089 125914 125730 125540 125343 125142
          124937 124728 124516 124301 124082 123861 123635 123405 123167 122920 122658 122365
          121972 121787 121660 121491 121320 121151 120951 120804 120680 120557 120433 120308
          120183 120058 119933 119808 119683 125261 125200 125143 125090 125044 125007 124983
          124974 124980 124967 124906 124810 124690 124554 124404 124244 124076 123901 123721
          123535 123345 123151 122953 122752 122546 122335 122119 121895 121660 121409 121134
          120815 120420 120348 120257 120127 119984 119829 119646 119518 119404 119289 119172
          119054 118935 118815 118695 118575 118454 123584 123543 123503 123467 123435 123409
          123392 123384 123355 123293 123213 123113 122997 122868 122729 122582 122428 122268
          122103 121932 121758 121578 121395 121207 121014 120816 120610 120395 120167 119921
          119649 119339 118982 118952 118881 118776 118654 118510 118346 118235 118130 118023
          117912 117800 117687 117573 117457 117342 117226 121907 121883 121860 121839 121819
          121803 121792 121785 121736 121641 121540 121432 121316 121192 121063 120927 120786
          120641 120490 120334 120174 120010 119841 119667 119488 119303 119110 118907 118692
          118458 118201 117914 117594 117593 117532 117442 117336 117199 117054 116956 116859
          116758 116655 116548 116440 116331 116220 116109 115997 120230 120223 120216 120209
          120201 120193 120186 120181 120117 119996 119876 119759 119641 119523 119402 119278
          119150 119018 118882 118741 118595 118446 118291 118132 117968 117798 117620 117433
          117234 117018 116783 116524 116261 116263 116207 116127 116031 115898 115769 115682
          115592 115497 115399 115298 115195 115090 114984 114877 114769 118553 118564 118573
          118579 118582 118581 118578 118574 118495 118348 118211 118085 117968 117855 117744
          117632 117518 117400 117278 117152 117021 116886 116747 116603 116454 116300 116139
          115970 115791 115599 115390 115162 114956 114957 114903 114828 114740 114608 114494
          114414 114329 114240 114147 114050 113951 113850 113748 113645 113541 116876 116906
          116933 116953 116967 116972 116971 116966 116867 116687 116533 116404 116291 116187
          116087 115988 115889 115786 115679 115567 115451 115331 115206 115078 114945 114808
          114666 114518 114362 114196 114017 113821 113672 113673 113618 113545 113461 113328
          113227 113152 113072 112987 112897 112805 112710 112612 112513 112413 112313 115201
          115253 115298 115335 115360 115371 115369 115359 115219 114993 114831 114708 114605
          114514 114429 114348 114268 114183 114092 113997 113896 113791 113683 113571 113455
          113336 113214 113088 112958 112822 112678 112519 112409 112409 112350 112277 112193
          112058 111968 111897 111819 111737 111651 111562 111470 111376 111280 111183 111085
          113528 113604 113673 113728 113767 113783 113775 113758 113481 113235 113095 112992
          112908 112835 112855 113162 113209 113153 113100 113036 112967 112892 112813 112730
          112642 112552 112460 112368 112277 112190 112099 112002 112066 111164 111100 111020
          110929 110797 110717 110647 110572 110492 110408 110322 110232 110141 110047 109953
          109858 111858 111964 112060 112139 112195 112221 112207 112115 111849 111702 111593
          111508 111436 111387 111428 111405 111397 111363 111309 111246 111176 111102 111023
          110939 110852 110762 110670 110578 110487 110400 110309 110212 110082 109969 109863
          109773 109662 109544 109473 109403 109329 109250 109169 109084 108997 108907 108816
          108724 108631 110191 110335 110465 110573 110653 110697 110696 110635 110529 110421
          110333 110258 110192 110133 110081 110103 110103 110048 109977 109897 109811 109722
          109631 109537 109439 109337 109236 109136 109036 108896 108784 108708 108631 108557
          108490 108428 108366 108302 108235 108164 108090 108012 107932 107849 107763 107676
          107586 107496 107404 108529 108720 108892 109036 109146 109216 109244 109230 109183
          109122 109060 109000 108943 108888 108841 108863 108861 108805 108733 108652 108567
          108478 108387 108294 108196 108094 107993 107893 107779 107643 107555 107482 107409
          107337 107268 107202 107136 107069 107000 106928 106854 106777 106697 106616 106532
          106446 106358 106268 106177 106874 107124 107347 107533 107678 107779 107838 107859
          107851 107822 107783 107738 107691 107642 107602 107624 107623 107567 107495 107414
          107329 107242 107151 107059 106961 106858 106757 106659 106537 106409 106329 106257
          106185 106114 106044 105975 105907 105838 105767 105695 105620 105544 105465 105385
          105303 105218 105132 105043 104951 105230 105556 105841 106073 106253 106384 106471
          106519 106537 106532 106511 106479 106441 106397 106364 106388 106387 106332 106259
          106179 106094 106007 105918 105826 105727 105623 105522 105423 105293 105178 105103
          105031 104960 104889 104818 104749 104679 104608 104537 104464 104389 104313 104235
          104156 104075 103993 103908 103820 103726 103604 104034 104389 104667 104879 105034
          105142 105210 105246 105257 105248 105227 105195 105156 105128 105153 105154 105099
          105026 104946 104862 104775 104686 104595 104495 104388 104286 104180 104048 103949
          103877 103805 103734 103663 103592 103522 103451 103380 103308 103235 103160 103084
          103007 102928 102849 102769 102688 102602 102505 102026 102601 103014 103325 103560
          103732 103854 103934 103980 104000 103999 103983 103956 103921 103894 103919 103924
          103870 103795 103715 103632 103545 103457 103365 103264 103152 103049 102928 102805
          102722 102651 102579 102508 102437 102366 102295 102224 102152 102080 102007 101932
          101856 101779 101702 101624 101546 101471 101400 101296 100738 101302 101735 102059
          102302 102480 102606 102691 102740 102763 102765 102751 102726 102691 102658 102678
          102698 102644 102568 102487 102404 102318 102229 102138 102034 101910 101785 101661
          101569 101496 101425 101353 101282 101211 101140 101069 100998 100926 100853 100780
          100705 100629 100553 100475 100398 100322 100250 100192 100237
        </DataArray>
        <DataArray type="Float32" Name="density_wetting" NumberOfComponents="1" format="ascii">
          1000 1000 1000 1000 1000 1000 1000 1000 1000 1000 1000 1000
          1000 1000 1000 1000 1000 1000 1000 1000 1000 1000 1000 1000
          1000 1000 1000 1000 1000 1000 1000 1000 1000 1000 1000 1000
          1000 1000 1000 1000 1000 1000 1000 1000 1000 1000 1000 1000
          1000 1000 1000 1000 1000 1000 1000 1000 1000 1000 1000 1000
          1000 1000 1000 1000 1000 1000 1000 1000 1000 1000 1000 1000
          1000 1000 1000 1000 1000 1000 1000 1000 1000 1000 1000 1000
          1000 1000 1000 1000 1000 1000 1000 1000 1000 1000 1000 1000
          1000 1000 1000 1000 1000 1000 1000 1000 1000 1000 1000 1000
          1000 1000 1000 1000 1000 1000 1000 1000 1000 1000 1000 1000
          1000 1000 1000 1000 1000 1000 1000 1000 1000 1000 1000 1000
          1000 1000 1000 1000 1000 1000 1000 1000 1000 1000 1000 1000
          1000 1000 1000 1000 1000 1000 1000 1000 1000 1000 1000 1000
          1000 1000 1000 1000 1000 1000 1000 1000 1000 1000 1000 1000
          1000 1000 1000 1000 1000 1000 1000 1000 1000 1000 1000 1000
          1000 1000 1000 1000 1000 1000 1000 1000 1000 1000 1000 1000
          1000 1000 1000 1000 1000 1000 1000 1000 1000 1000 1000 1000
          1000 1000 1000 1000 1000 1000 1000 1000 1000 1000 1000 1000
          1000 1000 1000 1000 1000 1000 1000 1000 1000 1000 1000 1000
          1000 1000 1000 1000 1000 1000 1000 1000 1000 1000 1000 1000
          1000 1000 1000 1000 1000 1000 1000 1000 1000 1000 1000 1000
          1000 1000 1000 1000 1000 1000 1000 1000 1000 1000 1000 1000
          1000 1000 1000 1000 1000 1000 1000 1000 1000 1000 1000 1000
          1000 1000 1000 1000 1000 1000 1000 1000 1000 1000 1000 1000
          1000 1000 1000 1000 1000 1000 1000 1000 1000 1000 1000 1000
          1000 1000 1000 1000 1000 1000 1000 1000 1000 1000 1000 1000
          1000 1000 1000 1000 1000 1000 1000 1000 1000 1000 1000 1000
          1000 1000 1000 1000 1000 1000 1000 1000 1000 1000 1000 1000
          1000 1000 1000 1000 1000 1000 1000 1000 1000 1000 1000 1000
          1000 1000 1000 1000 1000 1000 1000 1000 1000 1000 1000 1000
          1000 1000 1000 1000 1000 1000 1000 1000 1000 1000 1000 1000
          1000 1000 1000 1000 1000 1000 1000 1000 1000 1000 1000 1000
          1000 1000 1000 1000 1000 1000 1000 1000 1000 1000 1000 1000
          1000 1000 1000 1000 1000 1000 1000 1000 1000 1000 1000 1000
          1000 1000 1000 1000 1000 1000 1000 1000 1000 1000 1000 1000
          1000 1000 1000 1000 1000 1000 1000 1000 1000 1000 1000 1000
          1000 1000 1000 1000 1000 1000 1000 1000 1000 1000 1000 1000
          1000 1000 1000 1000 1000 1000 1000 1000 1000 1000 1000 1000
          1000 1000 1000 1000 1000 1000 1000 1000 1000 1000 1000 1000
          1000 1000 1000 1000 1000 1000 1000 1000 1000 1000 1000 1000
          1000 1000 1000 1000 1000 1000 1000 1000 1000 1000 1000 1000
          1000 1000 1000 1000 1000 1000 1000 1000 1000 1000 1000 1000
          1000 1000 1000 1000 1000 1000 1000 1000 1000 1000 1000 1000
          1000 1000 1000 1000 1000 1000 1000 1000 1000 1000 1000 1000
          1000 1000 1000 1000 1000 1000 1000 1000 1000 1000 1000 1000
          1000 1000 1000 1000 1000 1000 1000 1000 1000 1000 1000 1000
          1000 1000 1000 1000 1000 1000 1000 1000 1000 1000 1000 1000
          1000 1000 1000 1000 1000 1000 1000 1000 1000 1000 1000 1000
          1000 1000 1000 1000 1000 1000 1000 1000 1000 1000 1000 1000
          1000 1000 1000 1000 1000 1000 1000 1000 1000 1000 1000 1000
          1000 1000 1000 1000 1000 1000 1000 1000 1000 1000 1000 1000
          1000 1000 1000 1000 1000 1000 1000 1000 1000 1000 1000 1000
          1000 1000 1000 1000 1000 1000 1000 1000 1000 1000 1000 1000
          1000 1000 1000 1000 1000 1000 1000 1000 1000 1000 1000 1000
          1000 1000 1000 1000 1000 1000 1000 1000 1000 1000 1000 1000
          1000 1000 1000 1000 1000 1000 1000 1000 1000 1000 1000 1000
          1000 1000 1000 1000 1000 1000 1000 1000 1000 1000 1000 1000
          1000 1000 1000 1000 1000 1000 1000 1000 1000 1000 1000 1000