<?xml version="1.0"?>
<VTKFile type="UnstructuredGrid" version="0.1" byte_order="LittleEndian">
  <UnstructuredGrid>
    <Piece NumberOfCells="64" NumberOfPoints="81">
      <CellData Scalars="global pressure">
        <DataArray type="Float32" Name="global pressure" NumberOfComponents="1" format="ascii">
          0.097758 0.12059 0.173 0.197325 0.192325 0.165091 0.106329 0.0401586 0.12059 0.318883 0.47833 0.550023
          0.551477 0.462448 0.309603 0.108657 0.173 0.47833 0.69324 0.819422 0.817403 0.691356 0.465378 0.160518
          0.197325 0.550023 0.819422 0.961479 0.959541 0.81798 0.548266 0.188515 0.192325 0.551477 0.817403 0.959541
          0.962775 0.819539 0.545976 0.189745 0.165091 0.462448 0.691356 0.81798 0.819539 0.693279 0.461978 0.164835
          0.106329 0.309603 0.465378 0.548266 0.545976 0.461978 0.311537 0.117232 0.0401586 0.108657 0.160518 0.188515
          0.189745 0.164835 0.117232 0.0530471
        </DataArray>
        <DataArray type="Float32" Name="exact pressure" NumberOfComponents="1" format="ascii">
          0.0380602 0.108386 0.162212 0.191342 0.191342 0.162212 0.108386 0.0380602 0.108386 0.308658 0.46194 0.544895
          0.544895 0.46194 0.308658 0.108386 0.162212 0.46194 0.691342 0.815493 0.815493 0.691342 0.46194 0.162212
          0.191342 0.544895 0.815493 0.96194 0.96194 0.815493 0.544895 0.191342 0.191342 0.544895 0.815493 0.96194
          0.96194 0.815493 0.544895 0.191342 0.162212 0.46194 0.691342 0.815493 0.815493 0.691342 0.46194 0.162212
          0.108386 0.308658 0.46194 0.544895 0.544895 0.46194 0.308658 0.108386 0.0380602 0.108386 0.162212 0.191342
          0.191342 0.162212 0.108386 0.0380602
        </DataArray>
        <DataArray type="Float32" Name="permeability-X" NumberOfComponents="1" format="ascii">
          0.5005 0.1009 0.0394231 0.02098 0.0131829 0.00918852 0.00687647 0.00542035 0.9001 0.5005 0.265441 0.156017
          0.1009 0.0701615 0.0515112 0.0394231 0.961577 0.735559 0.5005 0.3385 0.236613 0.172062 0.129737 0.1009
          0.98002 0.844983 0.6625 0.5005 0.377546 0.288947 0.225546 0.179653 0.987817 0.9001 0.764387 0.623454
          0.5005 0.401589 0.324676 0.265441 0.991811 0.930838 0.828938 0.712053 0.599411 0.5005 0.417824 0.350361
          0.994124 0.949489 0.871263 0.775454 0.676324 0.583176 0.5005 0.429505 0.99558 0.961577 0.9001 0.821347
          0.735559 0.650639 0.571495 0.5005
        </DataArray>
        <DataArray type="Float32" Name="permeability-Y" NumberOfComponents="1" format="ascii">
          0.5005 0.9001 0.961577 0.98002 0.987817 0.991811 0.994124 0.99558 0.1009 0.5005 0.735559 0.844983
          0.9001 0.930838 0.949489 0.961577 0.0394231 0.265441 0.5005 0.6625 0.764387 0.828938 0.871263 0.9001
          0.02098 0.156017 0.3385 0.5005 0.623454 0.712053 0.775454 0.821347 0.0131829 0.1009 0.236613 0.377546
          0.5005 0.599411 0.676324 0.735559 0.00918852 0.0701615 0.172062 0.288947 0.401589 0.5005 0.583176 0.650639
          0.00687647 0.0515112 0.129737 0.225546 0.324676 0.417824 0.5005 0.571495 0.00542035 0.0394231 0.1009 0.179653
          0.265441 0.350361 0.429505 0.5005
        </DataArray>
        <DataArray type="Float32" Name="permeability-Offdiagonal" NumberOfComponents="1" format="ascii">
          -0.4995 -0.2997 -0.192115 -0.13986 -0.109646 -0.0900738 -0.0763941 -0.0663053 -0.2997 -0.4995 -0.440735 -0.361707
          -0.2997 -0.253592 -0.218882 -0.192115 -0.192115 -0.440735 -0.4995 -0.4725 -0.424104 -0.376336 -0.334716 -0.2997
          -0.13986 -0.361707 -0.4725 -0.4995 -0.484131 -0.452488 -0.417014 -0.382828 -0.109646 -0.2997 -0.424104 -0.484131
          -0.4995 -0.489609 -0.467532 -0.440735 -0.0900738 -0.253592 -0.376336 -0.452488 -0.489609 -0.4995 -0.49261 -0.476402
          -0.0763941 -0.218882 -0.334716 -0.417014 -0.467532 -0.49261 -0.4995 -0.494429 -0.0663053 -0.192115 -0.2997 -0.382828
          -0.440735 -0.476402 -0.494429 -0.4995
        </DataArray>
      </CellData>
      <Points>
        <DataArray type="Float32" Name="Coordinates" NumberOfComponents="3" format="ascii">
          0 0 0 0.125 0 0 0 0.125 0 0.125 0.125 0
          0.25 0 0 0.25 0.125 0 0.375 0 0 0.375 0.125 0
          0.5 0 0 0.5 0.125 0 0.625 0 0 0.625 0.125 0
          0.75 0 0 0.75 0.125 0 0.875 0 0 0.875 0.125 0
          1 0 0 1 0.125 0 0 0.25 0 0.125 0.25 0
          0.25 0.25 0 0.375 0.25 0 0.5 0.25 0 0.625 0.25 0
          0.75 0.25 0 0.875 0.25 0 1 0.25 0 0 0.375 0
          0.125 0.375 0 0.25 0.375 0 0.375 0.375 0 0.5 0.375 0
          0.625 0.375 0 0.75 0.375 0 0.875 0.375 0 1 0.375 0
          0 0.5 0 0.125 0.5 0 0.25 0.5 0 0.375 0.5 0
          0.5 0.5 0 0.625 0.5 0 0.75 0.5 0 0.875 0.5 0
          1 0.5 0 0 0.625 0 0.125 0.625 0 0.25 0.625 0
          0.375 0.625 0 0.5 0.625 0 0.625 0.625 0 0.75 0.625 0
          0.875 0.625 0 1 0.625 0 0 0.75 0 0.125 0.75 0
          0.25 0.75 0 0.375 0.75 0 0.5 0.75 0 0.625 0.75 0
          0.75 0.75 0 0.875 0.75 0 1 0.75 0 0 0.875 0
          0.125 0.875 0 0.25 0.875 0 0.375 0.875 0 0.5 0.875 0
          0.625 0.875 0 0.75 0.875 0 0.875 0.875 0 1 0.875 0
          0 1 0 0.125 1 0 0.25 1 0 0.375 1 0
          0.5 1 0 0.625 1 0 0.75 1 0 0.875 1 0
          1 1 0
        </DataArray>
      </Points>
      <Cells>
        <DataArray type="Int32" Name="connectivity" NumberOfComponents="1" format="ascii">
          0 1 3 2 1 4 5 3 4 6 7 5
          6 8 9 7 8 10 11 9 10 12 13 11
          12 14 15 13 14 16 17 15 2 3 19 18
          3 5 20 19 5 7 21 20 7 9 22 21
          9 11 23 22 11 13 24 23 13 15 25 24
          15 17 26 25 18 19 28 27 19 20 29 28
          20 21 30 29 21 22 31 30 22 23 32 31
          23 24 33 32 24 25 34 33 25 26 35 34
          27 28 37 36 28 29 38 37 29 30 39 38
          30 31 40 39 31 32 41 40 32 33 42 41
          33 34 43 42 34 35 44 43 36 37 46 45
          37 38 47 46 38 39 48 47 39 40 49 48
          40 41 50 49 41 42 51 50 42 43 52 51
          43 44 53 52 45 46 55 54 46 47 56 55
          47 48 57 56 48 49 58 57 49 50 59 58
          50 51 60 59 51 52 61 60 52 53 62 61
          54 55 64 63 55 56 65 64 56 57 66 65
          57 58 67 66 58 59 68 67 59 60 69 68
          60 61 70 69 61 62 71 70 63 64 73 72
          64 65 74 73 65 66 75 74 66 67 76 75
          67 68 77 76 68 69 78 77 69 70 79 78
          70 71 80 79
        </DataArray>
        <DataArray type="Int32" Name="offsets" NumberOfComponents="1" format="ascii">
          4 8 12 16 20 24 28 32 36 40 44 48
          52 56 60 64 68 72 76 80 84 88 92 96
          100 104 108 112 116 120 124 128 132 136 140 144
          148 152 156 160 164 168 172 176 180 184 188 192
          196 200 204 208 212 216 220 224 228 232 236 240
          244 248 252 256
        </DataArray>
        <DataArray type="UInt8" Name="types" NumberOfComponents="1" format="ascii">
          9 9 9 9 9 9 9 9 9 9 9 9
          9 9 9 9 9 9 9 9 9 9 9 9
          9 9 9 9 9 9 9 9 9 9 9 9
          9 9 9 9 9 9 9 9 9 9 9 9
          9 9 9 9 9 9 9 9 9 9 9 9
          9 9 9 9
        </DataArray>
      </Cells>
    </Piece>
  </UnstructuredGrid>
</VTKFile>
