<?xml version="1.0"?>
<VTKFile type="UnstructuredGrid" version="0.1" byte_order="LittleEndian">
  <UnstructuredGrid>
    <Piece NumberOfCells="384" NumberOfPoints="425">
      <PointData Scalars="pressure_l">
        <DataArray type="Float32" Name="pressure_l" NumberOfComponents="1" format="ascii">
          99991 99965.7 99978.7 99938 99938.4 99906.2 99924.7 99889 99045.6 99042.7 99004.9 99003.3
          99004.3 99002.7 99004.5 99002.9 99021.9 99019.4 99631.8 99599.4 99664.6 99634 99736 99704.9
          99847.9 99815.6 100005 99970.7 100212 100176 100477 100438 100808 100765 101209 101162
          101687 101634 102245 102185 102882 102811 103608 103511 104441 104312 105404 105807
          175362 168594 99965.9 99905.1 99863.2 99842.5 99040.1 99003.2 99002.7 99002.8 99017.8 99563.8
          99597.8 99666.9 99774.4 99924.8 100124 100377 100693 101077 101534 102065 102665 103311
          103943 104860 167714 99944 99854.5 99804.6 99782.2 99036.7 99003.2 99002.7 99002.8 99016.4
          99524.6 99557.1 99623 99725.2 99867.9 100056 100297 100595 100958 101390 101895 102468
          103087 103634 103143 165040 99866.8 99770.8 99727 99707.3 99032.6 99003.1 99002.7 99002.8
          99014.9 99482.2 99512.6 99574.1 99669.3 99801.9 99976.6 100199 100474 100809 101208 101678
          102224 102857 103614 104813 130318 99673.9 99659.2 99634.7 99621.3 99028 99003 99002.7
          99002.8 99013.5 99437.4 99465.2 99521.5 99608.3 99729 99887.4 100088 100336 100637 100995
          101417 101914 102520 103372 105229 101893 99552.5 99547.8 99538.1 99530.7 99023.4 99003
          99002.7 99002.8 99012.2 99390.9 99415.9 99466.4 99544 99651.5 99792.1 99969.3 100187 100449
          100759 101121 101541 102030 102595 102863 102814 99452.2 99450.4 99446.1 99442.3 99019.1
          99002.9 99002.7 99002.8 99010.8 99343.6 99365.8 99410.2 99478.3 99572.2 99694.3 99847.2 100034
          100256 100514 100810 101139 101488 101802 101997 102055 99365.3 99364.4 99362.4 99360.1
          99015.3 99002.8 99002.7 99002.7 99009.5 99296.6 99315.9 99354.3 99413 99493.5 99597.4 99726.5
          99882.3 100065 100275 100507 100754 100997 101204 101341 101388 99289.1 99288.6 99287.4
          99285.9 99012.2 99002.8 99002.7 99002.7 99008.2 99250.4 99267 99299.7 99349.6 99417.4 99504.4
          99611.4 99739 99886.5 100052 100231 100413 100586 100729 100823 100856 99222.2 99221.9
          99221.1 99219.9 99009.5 99002.8 99002.7 99002.7 99007 99205.8 99219.8 99247.5 99289.3 99345.8
          99417.7 99505.2 99608.1 99725.2 99854 99989.6 100125 100249 100349 100415 100438 99163.5
          99163.3 99162.6 99161.7 99007.3 99002.7 99002.7 99002.7 99005.8 99163 99174.8 99198.1 99233.1
          99279.9 99338.8 99409.8 99492.2 99584.5 99684.1 99787 99887.2 99977.4 100050 100096 100113
          99112 99111.8 99111.2 99110.3 99005.4 99002.7 99002.7 99002.7 99004.6 99122.2 99132.3 99152.1
          99181.5 99220.5 99268.9 99326.5 99392.6 99465.5 99543 99621.6 99696.9 99763.6 99816.3 99850.2
          99861.9 99066.8 99066.5 99065.7 99064.6 99003.7 99002.7 99002.7 99002.7 99003.3 99083 99092.2
          99109.7 99135 99167.9 99208.3 99255.8 99309.6 99368.2 99429.6 99490.9 99548.9 99599.6 99639.2
          99664.5 99673.2 99027.2 99026.7 99025.4 99023.2 99001.6 99001.8 99001.8 99001.8 99001.5 99044.7
          99054.4 99071 99093.6 99122.4 99157.3 99197.7 99243 99291.8 99342.3 99392.2 99438.8 99479.2
          99510.5 99530.4 99537.2 98992.6 98992.1 98990.3 98986.4 98982.6 98980.1 98981 98985.4 98994.5
          99004.7 99019.7 99036.5 99057.8 99084.1 99115.7 99152 99192.3 99235.4 99279.6 99323 99363.2
          99397.8 99424.5 99441.3 99447.1 98962.8 98962.2 98960.4 98957.5 98954.4 98952.8 98953.7 98958
          98965.6 98976.1 98989.7 99006.6 99027.5 99053.1 99083.5 99118.4 99157.1 99198.3 99240.5 99281.8
          99319.9 99352.6 99377.8 99393.7 99399.1
        </DataArray>
        <DataArray type="Float32" Name="pressure_g" NumberOfComponents="1" format="ascii">
          99991 99965.7 99978.7 99938 99938.4 99906.2 99924.7 99889 99045.6 99042.7 99004.9 99003.3
          99004.3 99002.7 99004.5 99002.9 99021.9 99019.4 99631.8 99599.4 99664.6 99634 99736 99704.9
          99847.9 99815.6 100005 99970.7 100212 100176 100477 100438 100808 100765 101209 101162
          101687 101634 102245 102185 102882 102811 103608 103511 104441 104312 105404 105807
          175362 168594 99965.9 99905.1 99863.2 99842.5 99040.1 99003.2 99002.7 99002.8 99017.8 99563.8
          99597.8 99666.9 99774.4 99924.8 100124 100377 100693 101077 101534 102065 102665 103311
          103943 104860 167714 99944 99854.5 99804.6 99782.2 99036.7 99003.2 99002.7 99002.8 99016.4
          99524.6 99557.1 99623 99725.2 99867.9 100056 100297 100595 100958 101390 101895 102468
          103087 103634 103143 165040 99866.8 99770.8 99727 99707.3 99032.6 99003.1 99002.7 99002.8
          99014.9 99482.2 99512.6 99574.1 99669.3 99801.9 99976.6 100199 100474 100809 101208 101678
          102224 102857 103614 104813 130318 99673.9 99659.2 99634.7 99621.3 99028 99003 99002.7
          99002.8 99013.5 99437.4 99465.2 99521.5 99608.3 99729 99887.4 100088 100336 100637 100995
          101417 101914 102520 103372 105229 101893 99552.5 99547.8 99538.1 99530.7 99023.4 99003
          99002.7 99002.8 99012.2 99390.9 99415.9 99466.4 99544 99651.5 99792.1 99969.3 100187 100449
          100759 101121 101541 102030 102595 102863 102814 99452.2 99450.4 99446.1 99442.3 99019.1
          99002.9 99002.7 99002.8 99010.8 99343.6 99365.8 99410.2 99478.3 99572.2 99694.3 99847.2 100034
          100256 100514 100810 101139 101488 101802 101997 102055 99365.3 99364.4 99362.4 99360.1
          99015.3 99002.8 99002.7 99002.7 99009.5 99296.6 99315.9 99354.3 99413 99493.5 99597.4 99726.5
          99882.3 100065 100275 100507 100754 100997 101204 101341 101388 99289.1 99288.6 99287.4
          99285.9 99012.2 99002.8 99002.7 99002.7 99008.2 99250.4 99267 99299.7 99349.6 99417.4 99504.4
          99611.4 99739 99886.5 100052 100231 100413 100586 100729 100823 100856 99222.2 99221.9
          99221.1 99219.9 99009.5 99002.8 99002.7 99002.7 99007 99205.8 99219.8 99247.5 99289.3 99345.8
          99417.7 99505.2 99608.1 99725.2 99854 99989.6 100125 100249 100349 100415 100438 99163.5
          99163.3 99162.6 99161.7 99007.3 99002.7 99002.7 99002.7 99005.8 99163 99174.8 99198.1 99233.1
          99279.9 99338.8 99409.8 99492.2 99584.5 99684.1 99787 99887.2 99977.4 100050 100096 100113
          99112 99111.8 99111.2 99110.3 99005.4 99002.7 99002.7 99002.7 99004.6 99122.2 99132.3 99152.1
          99181.5 99220.5 99268.9 99326.5 99392.6 99465.5 99543 99621.6 99696.9 99763.6 99816.3 99850.2
          99861.9 99066.8 99066.5 99065.7 99064.6 99003.7 99002.7 99002.7 99002.7 99003.3 99083 99092.2
          99109.7 99135 99167.9 99208.3 99255.8 99309.6 99368.2 99429.6 99490.9 99548.9 99599.6 99639.2
          99664.5 99673.2 99027.2 99026.7 99025.4 99023.2 99001.6 99001.8 99001.8 99001.8 99001.5 99044.7
          99054.4 99071 99093.6 99122.4 99157.3 99197.7 99243 99291.8 99342.3 99392.2 99438.8 99479.2
          99510.5 99530.4 99537.2 98992.6 98992.1 98990.3 98986.4 98982.6 98980.1 98981 98985.4 98994.5
          99004.7 99019.7 99036.5 99057.8 99084.1 99115.7 99152 99192.3 99235.4 99279.6 99323 99363.2
          99397.8 99424.5 99441.3 99447.1 98962.8 98962.2 98960.4 98957.5 98954.4 98952.8 98953.7 98958
          98965.6 98976.1 98989.7 99006.6 99027.5 99053.1 99083.5 99118.4 99157.1 99198.3 99240.5 99281.8
          99319.9 99352.6 99377.8 99393.7 99399.1
        </DataArray>
        <DataArray type="Float32" Name="density_l" NumberOfComponents="1" format="ascii">
          997.048 997.048 997.048 997.048 997.048 997.048 997.048 997.048 997.047 997.047 997.047 997.047
          997.047 997.047 997.047 997.047 997.047 997.047 997.047 997.047 997.048 997.047 997.048 997.048
          997.048 997.048 997.048 997.048 997.048 997.048 997.048 997.048 997.048 997.048 997.048 997.048
          997.048 997.048 997.049 997.049 997.049 997.049 997.049 997.049 997.05 997.05 997.05 997.05
          997.082 997.079 997.048 997.048 997.048 997.048 997.047 997.047 997.047 997.047 997.047 997.047
          997.047 997.048 997.048 997.048 997.048 997.048 997.048 997.048 997.048 997.049 997.049 997.049
          997.049 997.05 997.078 997.048 997.048 997.048 997.048 997.047 997.047 997.047 997.047 997.047
          997.047 997.047 997.047 997.048 997.048 997.048 997.048 997.048 997.048 997.048 997.049 997.049
          997.049 997.049 997.049 997.077 997.048 997.048 997.048 997.048 997.047 997.047 997.047 997.047
          997.047 997.047 997.047 997.047 997.048 997.048 997.048 997.048 997.048 997.048 997.048 997.048
          997.049 997.049 997.049 997.05 997.061 997.048 997.048 997.047 997.047 997.047 997.047 997.047
          997.047 997.047 997.047 997.047 997.047 997.047 997.048 997.048 997.048 997.048 997.048 997.048
          997.048 997.049 997.049 997.049 997.05 997.049 997.047 997.047 997.047 997.047 997.047 997.047
          997.047 997.047 997.047 997.047 997.047 997.047 997.047 997.047 997.048 997.048 997.048 997.048
          997.048 997.048 997.048 997.049 997.049 997.049 997.049 997.047 997.047 997.047 997.047 997.047
          997.047 997.047 997.047 997.047 997.047 997.047 997.047 997.047 997.047 997.048 997.048 997.048
          997.048 997.048 997.048 997.048 997.048 997.048 997.049 997.049 997.047 997.047 997.047 997.047
          997.047 997.047 997.047 997.047 997.047 997.047 997.047 997.047 997.047 997.047 997.047 997.048
          997.048 997.048 997.048 997.048 997.048 997.048 997.048 997.048 997.048 997.047 997.047 997.047
          997.047 997.047 997.047 997.047 997.047 997.047 997.047 997.047 997.047 997.047 997.047 997.047
          997.047 997.048 997.048 997.048 997.048 997.048 997.048 997.048 997.048 997.048 997.047 997.047
          997.047 997.047 997.047 997.047 997.047 997.047 997.047 997.047 997.047 997.047 997.047 997.047
          997.047 997.047 997.047 997.048 997.048 997.048 997.048 997.048 997.048 997.048 997.048 997.047
          997.047 997.047 997.047 997.047 997.047 997.047 997.047 997.047 997.047 997.047 997.047 997.047
          997.047 997.047 997.047 997.047 997.047 997.048 997.048 997.048 997.048 997.048 997.048 997.048
          997.047 997.047 997.047 997.047 997.047 997.047 997.047 997.047 997.047 997.047 997.047 997.047
          997.047 997.047 997.047 997.047 997.047 997.047 997.047 997.047 997.048 997.048 997.048 997.048
          997.048 997.047 997.047 997.047 997.047 997.047 997.047 997.047 997.047 997.047 997.047 997.047
          997.047 997.047 997.047 997.047 997.047 997.047 997.047 997.047 997.047 997.047 997.047 997.047
          997.048 997.048 997.047 997.047 997.047 997.047 997.047 997.047 997.047 997.047 997.047 997.047
          997.047 997.047 997.047 997.047 997.047 997.047 997.047 997.047 997.047 997.047 997.047 997.047
          997.047 997.047 997.047 997.047 997.047 997.047 997.047 997.047 997.047 997.047 997.047 997.047
          997.047 997.047 997.047 997.047 997.047 997.047 997.047 997.047 997.047 997.047 997.047 997.047
          997.047 997.047 997.047 997.047 997.047 997.047 997.047 997.047 997.047 997.047 997.047 997.047
          997.047 997.047 997.047 997.047 997.047 997.047 997.047 997.047 997.047 997.047 997.047 997.047
          997.047 997.047 997.047 997.047 997.047
        </DataArray>
        <DataArray type="Float32" Name="density_g" NumberOfComponents="1" format="ascii">
          1.12991 1.12963 1.12977 1.12931 1.12932 1.12895 1.12916 1.12876 1.11923 1.1192 1.11877 1.11875
          1.11876 1.11874 1.11876 1.11875 1.11896 1.11893 1.12585 1.12549 1.12622 1.12588 1.12703 1.12668
          1.12829 1.12793 1.13007 1.12968 1.13241 1.132 1.13541 1.13497 1.13914 1.13866 1.14368 1.14314
          1.14908 1.14848 1.15538 1.1547 1.16259 1.16178 1.17078 1.16969 1.1802 1.17874 1.19108 1.19564
          1.98165 1.90516 1.12963 1.12894 1.12847 1.12823 1.11917 1.11875 1.11874 1.11875 1.11891 1.12508
          1.12547 1.12625 1.12746 1.12916 1.13141 1.13428 1.13785 1.14218 1.14735 1.15335 1.16013 1.16742
          1.17457 1.18494 1.89521 1.12938 1.12837 1.12781 1.12755 1.11913 1.11875 1.11874 1.11875 1.1189
          1.12464 1.12501 1.12575 1.12691 1.12852 1.13065 1.13336 1.13674 1.14084 1.14572 1.15143 1.15791
          1.1649 1.17108 1.16553 1.86499 1.12851 1.12742 1.12693 1.12671 1.11908 1.11875 1.11874 1.11875
          1.11888 1.12416 1.12451 1.1252 1.12628 1.12778 1.12975 1.13226 1.13537 1.13916 1.14367 1.14898
          1.15514 1.1623 1.17085 1.1844 1.47262 1.12633 1.12616 1.12589 1.12573 1.11903 1.11875 1.11874
          1.11874 1.11887 1.12366 1.12397 1.12461 1.12559 1.12695 1.12874 1.13101 1.13381 1.13721 1.14126
          1.14603 1.15165 1.15849 1.16812 1.1891 1.15141 1.12496 1.1249 1.12479 1.12471 1.11898 1.11875
          1.11874 1.11874 1.11885 1.12313 1.12341 1.12398 1.12486 1.12608 1.12766 1.12967 1.13213 1.13509
          1.13859 1.14268 1.14743 1.15296 1.15934 1.16237 1.16181 1.12382 1.1238 1.12376 1.12371 1.11893
          1.11875 1.11874 1.11874 1.11884 1.1226 1.12285 1.12335 1.12412 1.12518 1.12656 1.12829 1.13039
          1.1329 1.13583 1.13917 1.14288 1.14682 1.15038 1.15258 1.15323 1.12284 1.12283 1.12281 1.12278
          1.11889 1.11875 1.11874 1.11874 1.11882 1.12207 1.12228 1.12272 1.12338 1.12429 1.12546 1.12692
          1.12868 1.13075 1.13312 1.13574 1.13853 1.14128 1.14362 1.14516 1.14569 1.12198 1.12198 1.12196
          1.12194 1.11885 1.11875 1.11874 1.11874 1.11881 1.12154 1.12173 1.1221 1.12266 1.12343 1.12441
          1.12562 1.12706 1.12873 1.1306 1.13262 1.13468 1.13663 1.13825 1.13932 1.13969 1.12122 1.12122
          1.12121 1.1212 1.11882 1.11874 1.11874 1.11874 1.11879 1.12104 1.1212 1.12151 1.12198 1.12262
          1.12343 1.12442 1.12558 1.12691 1.12836 1.1299 1.13142 1.13282 1.13396 1.13471 1.13497 1.12056
          1.12056 1.12055 1.12054 1.1188 1.11874 1.11874 1.11874 1.11878 1.12056 1.12069 1.12095 1.12135
          1.12188 1.12254 1.12334 1.12428 1.12532 1.12644 1.12761 1.12874 1.12976 1.13057 1.1311 1.13129
          1.11998 1.11998 1.11997 1.11996 1.11877 1.11874 1.11874 1.11874 1.11876 1.12009 1.12021 1.12043
          1.12076 1.1212 1.12175 1.1224 1.12315 1.12397 1.12485 1.12574 1.12659 1.12734 1.12794 1.12832
          1.12845 1.11947 1.11947 1.11946 1.11944 1.11876 1.11874 1.11874 1.11874 1.11875 1.11965 1.11976
          1.11995 1.12024 1.12061 1.12107 1.1216 1.12221 1.12287 1.12357 1.12426 1.12492 1.12549 1.12594
          1.12622 1.12632 1.11902 1.11902 1.119 1.11898 1.11873 1.11873 1.11873 1.11873 1.11873 1.11922
          1.11933 1.11952 1.11977 1.1201 1.12049 1.12095 1.12146 1.12201 1.12258 1.12315 1.12367 1.12413
          1.12448 1.12471 1.12478 1.11863 1.11862 1.1186 1.11856 1.11852 1.11849 1.1185 1.11855 1.11865
          1.11877 1.11894 1.11913 1.11937 1.11966 1.12002 1.12043 1.12089 1.12137 1.12187 1.12236 1.12282
          1.12321 1.12351 1.1237 1.12377 1.11829 1.11829 1.11827 1.11823 1.1182 1.11818 1.11819 1.11824
          1.11832 1.11844 1.1186 1.11879 1.11902 1.11931 1.11966 1.12005 1.12049 1.12095 1.12143 1.1219
          1.12233 1.1227 1.12298 1.12316 1.12322
        </DataArray>
        <DataArray type="Float32" Name="saturation_l" NumberOfComponents="1" format="ascii">
          9.41096e-06 9.42406e-06 7.2782e-06 7.29002e-06 9.42412e-06 7.28998e-06 9.42408e-06 7.28996e-06 7.29089e-06 7.28874e-06 7.29082e-06 7.28869e-06
          7.29082e-06 7.28869e-06 7.29082e-06 7.28869e-06 7.29085e-06 7.28871e-06 9.42349e-06 7.28955e-06 9.42359e-06 7.2896e-06 9.42373e-06 7.2897e-06
          9.42395e-06 7.28985e-06 9.42427e-06 7.29007e-06 9.42469e-06 7.29036e-06 9.42522e-06 7.29072e-06 9.42587e-06 7.29116e-06 9.42666e-06 7.29169e-06
          9.42758e-06 7.2923e-06 9.42863e-06 7.29299e-06 9.43343e-06 7.29631e-06 1.13244e-05 8.81197e-06 0.000823498 0.000756959 0.255171 0.208219
          0.99984 0.99963 7.27568e-06 7.28996e-06 7.28992e-06 7.28989e-06 7.28874e-06 7.28869e-06 7.28869e-06 7.28869e-06 7.28871e-06 7.28949e-06
          7.28954e-06 7.28964e-06 7.28979e-06 7.29e-06 7.29028e-06 7.29063e-06 7.29106e-06 7.29157e-06 7.29217e-06 7.29283e-06 7.29491e-06 8.09848e-06
          0.000454416 0.202773 0.999658 7.27165e-06 7.28987e-06 7.28983e-06 7.2898e-06 7.28874e-06 7.28869e-06 7.28869e-06 7.28869e-06 7.28871e-06
          7.28944e-06 7.28948e-06 7.28958e-06 7.28972e-06 7.28992e-06 7.29019e-06 7.29052e-06 7.29092e-06 7.29141e-06 7.29197e-06 7.29261e-06 7.29368e-06
          7.47944e-06 6.65261e-05 0.173614 0.999749 7.27286e-06 7.28975e-06 7.28971e-06 7.28969e-06 7.28873e-06 7.28869e-06 7.28869e-06 7.28869e-06
          7.2887e-06 7.28938e-06 7.28942e-06 7.28951e-06 7.28964e-06 7.28983e-06 7.29007e-06 7.29038e-06 7.29076e-06 7.29121e-06 7.29173e-06 7.29233e-06
          7.29323e-06 7.48513e-06 0.000126793 0.0450508 0.979246 7.28961e-06 7.28961e-06 7.28958e-06 7.28957e-06 7.28872e-06 7.28869e-06 7.28869e-06
          7.28869e-06 7.2887e-06 7.28931e-06 7.28935e-06 7.28943e-06 7.28955e-06 7.28972e-06 7.28995e-06 7.29022e-06 7.29056e-06 7.29097e-06 7.29145e-06
          7.29199e-06 7.29261e-06 7.29329e-06 7.2941e-06 7.29869e-06 7.53714e-06 7.28946e-06 7.28946e-06 7.28944e-06 7.28944e-06 7.28872e-06 7.28869e-06
          7.28869e-06 7.28869e-06 7.2887e-06 7.28924e-06 7.28928e-06 7.28935e-06 7.28946e-06 7.28961e-06 7.28981e-06 7.29006e-06 7.29036e-06 7.29071e-06
          7.29113e-06 7.2916e-06 7.29213e-06 7.29273e-06 7.29336e-06 7.29323e-06 7.29366e-06 7.28932e-06 7.28932e-06 7.28931e-06 7.28931e-06 7.28871e-06
          7.28869e-06 7.28869e-06 7.28869e-06 7.2887e-06 7.28918e-06 7.28921e-06 7.28927e-06 7.28937e-06 7.2895e-06 7.28967e-06 7.28989e-06 7.29014e-06
          7.29045e-06 7.2908e-06 7.29119e-06 7.29162e-06 7.29205e-06 7.29241e-06 7.29262e-06 7.29269e-06 7.2892e-06 7.2892e-06 7.2892e-06 7.28919e-06
          7.28871e-06 7.28869e-06 7.28869e-06 7.28869e-06 7.2887e-06 7.28911e-06 7.28914e-06 7.28919e-06 7.28927e-06 7.28939e-06 7.28953e-06 7.28972e-06
          7.28993e-06 7.29018e-06 7.29047e-06 7.29078e-06 7.29111e-06 7.29142e-06 7.29168e-06 7.29184e-06 7.29189e-06 7.28909e-06 7.28909e-06 7.28909e-06
          7.28909e-06 7.2887e-06 7.28869e-06 7.28869e-06 7.28869e-06 7.28869e-06 7.28904e-06 7.28907e-06 7.28911e-06 7.28918e-06 7.28928e-06 7.2894e-06
          7.28955e-06 7.28973e-06 7.28994e-06 7.29016e-06 7.29041e-06 7.29065e-06 7.29088e-06 7.29106e-06 7.29118e-06 7.29122e-06 7.289e-06 7.289e-06
          7.289e-06 7.28899e-06 7.2887e-06 7.28869e-06 7.28869e-06 7.28869e-06 7.28869e-06 7.28898e-06 7.289e-06 7.28904e-06 7.2891e-06 7.28918e-06
          7.28928e-06 7.2894e-06 7.28955e-06 7.28971e-06 7.28989e-06 7.29007e-06 7.29026e-06 7.29042e-06 7.29056e-06 7.29065e-06 7.29068e-06 7.28891e-06
          7.28891e-06 7.28891e-06 7.28891e-06 7.28869e-06 7.28869e-06 7.28869e-06 7.28869e-06 7.28869e-06 7.28891e-06 7.28893e-06 7.28896e-06 7.28901e-06
          7.28908e-06 7.28916e-06 7.28926e-06 7.28938e-06 7.28951e-06 7.28965e-06 7.28979e-06 7.28993e-06 7.29005e-06 7.29015e-06 7.29021e-06 7.29024e-06
          7.28881e-06 7.28881e-06 7.28881e-06 7.28881e-06 7.28869e-06 7.28869e-06 7.28869e-06 7.28869e-06 7.28869e-06 7.28883e-06 7.28884e-06 7.28887e-06
          7.28891e-06 7.28897e-06 7.28904e-06 7.28912e-06 7.28921e-06 7.28932e-06 7.28943e-06 7.28954e-06 7.28964e-06 7.28973e-06 7.28981e-06 7.28985e-06
          7.28987e-06 7.28824e-06 7.28824e-06 7.28824e-06 7.28824e-06 7.28869e-06 7.28869e-06 7.28869e-06 7.28869e-06 7.28869e-06 7.28826e-06 7.28828e-06
          7.2883e-06 7.28834e-06 7.28839e-06 7.28844e-06 7.28851e-06 7.28859e-06 7.28867e-06 7.28876e-06 7.28885e-06 7.28893e-06 7.289e-06 7.28906e-06
          7.28909e-06 7.2891e-06 7.279e-06 7.279e-06 7.279e-06 7.279e-06 7.28991e-06 7.28991e-06 7.28991e-06 7.28991e-06 7.28991e-06 7.27903e-06
          7.27904e-06 7.27906e-06 7.2791e-06 7.27914e-06 7.27919e-06 7.27925e-06 7.27932e-06 7.27939e-06 7.27946e-06 7.27954e-06 7.27961e-06 7.27967e-06
          7.27971e-06 7.27974e-06 7.27975e-06 7.13754e-06 7.13754e-06 7.13753e-06 7.13754e-06 8.19174e-06 8.19174e-06 8.19174e-06 8.19175e-06 8.19174e-06
          7.13756e-06 7.13757e-06 7.1376e-06 7.13763e-06 7.13767e-06 7.13772e-06 7.13778e-06 7.13784e-06 7.13791e-06 7.13798e-06 7.13805e-06 7.13812e-06
          7.13817e-06 7.13822e-06 7.13824e-06 7.13825e-06 5.47786e-06 5.47786e-06 5.47786e-06 5.47786e-06 5.47786e-06 5.47785e-06 5.47786e-06 5.47786e-06
          5.47787e-06 5.47788e-06 5.47789e-06 5.47791e-06 5.47793e-06 5.47796e-06 5.47799e-06 5.47802e-06 5.47806e-06 5.47811e-06 5.47815e-06 5.47819e-06
          5.47823e-06 5.47827e-06 5.47829e-06 5.47831e-06 5.47831e-06
        </DataArray>
        <DataArray type="Float32" Name="saturation_g" NumberOfComponents="1" format="ascii">
          0.999991 0.999991 0.999993 0.999993 0.999991 0.999993 0.999991 0.999993 0.999993 0.999993 0.999993 0.999993
          0.999993 0.999993 0.999993 0.999993 0.999993 0.999993 0.999991 0.999993 0.999991 0.999993 0.999991 0.999993
          0.999991 0.999993 0.999991 0.999993 0.999991 0.999993 0.999991 0.999993 0.999991 0.999993 0.999991 0.999993
          0.999991 0.999993 0.999991 0.999993 0.999991 0.999993 0.999989 0.999991 0.999177 0.999243 0.744829 0.791781
          0.00015979 0.000370185 0.999993 0.999993 0.999993 0.999993 0.999993 0.999993 0.999993 0.999993 0.999993 0.999993
          0.999993 0.999993 0.999993 0.999993 0.999993 0.999993 0.999993 0.999993 0.999993 0.999993 0.999993 0.999992
          0.999546 0.797227 0.000342233 0.999993 0.999993 0.999993 0.999993 0.999993 0.999993 0.999993 0.999993 0.999993
          0.999993 0.999993 0.999993 0.999993 0.999993 0.999993 0.999993 0.999993 0.999993 0.999993 0.999993 0.999993
          0.999993 0.999933 0.826386 0.000250885 0.999993 0.999993 0.999993 0.999993 0.999993 0.999993 0.999993 0.999993
          0.999993 0.999993 0.999993 0.999993 0.999993 0.999993 0.999993 0.999993 0.999993 0.999993 0.999993 0.999993
          0.999993 0.999992 0.999873 0.954949 0.0207545 0.999993 0.999993 0.999993 0.999993 0.999993 0.999993 0.999993
          0.999993 0.999993 0.999993 0.999993 0.999993 0.999993 0.999993 0.999993 0.999993 0.999993 0.999993 0.999993
          0.999993 0.999993 0.999993 0.999993 0.999993 0.999992 0.999993 0.999993 0.999993 0.999993 0.999993 0.999993
          0.999993 0.999993 0.999993 0.999993 0.999993 0.999993 0.999993 0.999993 0.999993 0.999993 0.999993 0.999993
          0.999993 0.999993 0.999993 0.999993 0.999993 0.999993 0.999993 0.999993 0.999993 0.999993 0.999993 0.999993
          0.999993 0.999993 0.999993 0.999993 0.999993 0.999993 0.999993 0.999993 0.999993 0.999993 0.999993 0.999993
          0.999993 0.999993 0.999993 0.999993 0.999993 0.999993 0.999993 0.999993 0.999993 0.999993 0.999993 0.999993
          0.999993 0.999993 0.999993 0.999993 0.999993 0.999993 0.999993 0.999993 0.999993 0.999993 0.999993 0.999993
          0.999993 0.999993 0.999993 0.999993 0.999993 0.999993 0.999993 0.999993 0.999993 0.999993 0.999993 0.999993
          0.999993 0.999993 0.999993 0.999993 0.999993 0.999993 0.999993 0.999993 0.999993 0.999993 0.999993 0.999993
          0.999993 0.999993 0.999993 0.999993 0.999993 0.999993 0.999993 0.999993 0.999993 0.999993 0.999993 0.999993
          0.999993 0.999993 0.999993 0.999993 0.999993 0.999993 0.999993 0.999993 0.999993 0.999993 0.999993 0.999993
          0.999993 0.999993 0.999993 0.999993 0.999993 0.999993 0.999993 0.999993 0.999993 0.999993 0.999993 0.999993
          0.999993 0.999993 0.999993 0.999993 0.999993 0.999993 0.999993 0.999993 0.999993 0.999993 0.999993 0.999993
          0.999993 0.999993 0.999993 0.999993 0.999993 0.999993 0.999993 0.999993 0.999993 0.999993 0.999993 0.999993
          0.999993 0.999993 0.999993 0.999993 0.999993 0.999993 0.999993 0.999993 0.999993 0.999993 0.999993 0.999993
          0.999993 0.999993 0.999993 0.999993 0.999993 0.999993 0.999993 0.999993 0.999993 0.999993 0.999993 0.999993
          0.999993 0.999993 0.999993 0.999993 0.999993 0.999993 0.999993 0.999993 0.999993 0.999993 0.999993 0.999993
          0.999993 0.999993 0.999993 0.999993 0.999993 0.999993 0.999993 0.999993 0.999993 0.999993 0.999993 0.999993
          0.999993 0.999993 0.999993 0.999993 0.999993 0.999993 0.999993 0.999993 0.999993 0.999993 0.999993 0.999993
          0.999993 0.999993 0.999993 0.999993 0.999993 0.999993 0.999993 0.999993 0.999993 0.999993 0.999993 0.999993
          0.999993 0.999993 0.999993 0.999993 0.999993 0.999993 0.999993 0.999992 0.999992 0.999992 0.999992 0.999992
          0.999993 0.999993 0.999993 0.999993 0.999993 0.999993 0.999993 0.999993 0.999993 0.999993 0.999993 0.999993
          0.999993 0.999993 0.999993 0.999993 0.999995 0.999995 0.999995 0.999995 0.999995 0.999995 0.999995 0.999995
          0.999995 0.999995 0.999995 0.999995 0.999995 0.999995 0.999995 0.999995 0.999995 0.999995 0.999995 0.999995
          0.999995 0.999995 0.999995 0.999995 0.999995
        </DataArray>
        <DataArray type="Float32" Name="relativePerm_l" NumberOfComponents="1" format="ascii">
          9.41096e-06 9.42406e-06 7.2782e-06 7.29002e-06 9.42412e-06 7.28998e-06 9.42408e-06 7.28996e-06 7.29089e-06 7.28874e-06 7.29082e-06 7.28869e-06
          7.29082e-06 7.28869e-06 7.29082e-06 7.28869e-06 7.29085e-06 7.28871e-06 9.42349e-06 7.28955e-06 9.42359e-06 7.2896e-06 9.42373e-06 7.2897e-06
          9.42395e-06 7.28985e-06 9.42427e-06 7.29007e-06 9.42469e-06 7.29036e-06 9.42522e-06 7.29072e-06 9.42587e-06 7.29116e-06 9.42666e-06 7.29169e-06
          9.42758e-06 7.2923e-06 9.42863e-06 7.29299e-06 9.43343e-06 7.29631e-06 1.13244e-05 8.81197e-06 0.000823498 0.000756959 0.255171 0.208219
          0.99984 0.99963 7.27568e-06 7.28996e-06 7.28992e-06 7.28989e-06 7.28874e-06 7.28869e-06 7.28869e-06 7.28869e-06 7.28871e-06 7.28949e-06
          7.28954e-06 7.28964e-06 7.28979e-06 7.29e-06 7.29028e-06 7.29063e-06 7.29106e-06 7.29157e-06 7.29217e-06 7.29283e-06 7.29491e-06 8.09848e-06
          0.000454416 0.202773 0.999658 7.27165e-06 7.28987e-06 7.28983e-06 7.2898e-06 7.28874e-06 7.28869e-06 7.28869e-06 7.28869e-06 7.28871e-06
          7.28944e-06 7.28948e-06 7.28958e-06 7.28972e-06 7.28992e-06 7.29019e-06 7.29052e-06 7.29092e-06 7.29141e-06 7.29197e-06 7.29261e-06 7.29368e-06
          7.47944e-06 6.65261e-05 0.173614 0.999749 7.27286e-06 7.28975e-06 7.28971e-06 7.28969e-06 7.28873e-06 7.28869e-06 7.28869e-06 7.28869e-06
          7.2887e-06 7.28938e-06 7.28942e-06 7.28951e-06 7.28964e-06 7.28983e-06 7.29007e-06 7.29038e-06 7.29076e-06 7.29121e-06 7.29173e-06 7.29233e-06
          7.29323e-06 7.48513e-06 0.000126793 0.0450508 0.979246 7.28961e-06 7.28961e-06 7.28958e-06 7.28957e-06 7.28872e-06 7.28869e-06 7.28869e-06
          7.28869e-06 7.2887e-06 7.28931e-06 7.28935e-06 7.28943e-06 7.28955e-06 7.28972e-06 7.28995e-06 7.29022e-06 7.29056e-06 7.29097e-06 7.29145e-06
          7.29199e-06 7.29261e-06 7.29329e-06 7.2941e-06 7.29869e-06 7.53714e-06 7.28946e-06 7.28946e-06 7.28944e-06 7.28944e-06 7.28872e-06 7.28869e-06
          7.28869e-06 7.28869e-06 7.2887e-06 7.28924e-06 7.28928e-06 7.28935e-06 7.28946e-06 7.28961e-06 7.28981e-06 7.29006e-06 7.29036e-06 7.29071e-06
          7.29113e-06 7.2916e-06 7.29213e-06 7.29273e-06 7.29336e-06 7.29323e-06 7.29366e-06 7.28932e-06 7.28932e-06 7.28931e-06 7.28931e-06 7.28871e-06
          7.28869e-06 7.28869e-06 7.28869e-06 7.2887e-06 7.28918e-06 7.28921e-06 7.28927e-06 7.28937e-06 7.2895e-06 7.28967e-06 7.28989e-06 7.29014e-06
          7.29045e-06 7.2908e-06 7.29119e-06 7.29162e-06 7.29205e-06 7.29241e-06 7.29262e-06 7.29269e-06 7.2892e-06 7.2892e-06 7.2892e-06 7.28919e-06
          7.28871e-06 7.28869e-06 7.28869e-06 7.28869e-06 7.2887e-06 7.28911e-06 7.28914e-06 7.28919e-06 7.28927e-06 7.28939e-06 7.28953e-06 7.28972e-06
          7.28993e-06 7.29018e-06 7.29047e-06 7.29078e-06 7.29111e-06 7.29142e-06 7.29168e-06 7.29184e-06 7.29189e-06 7.28909e-06 7.28909e-06 7.28909e-06
          7.28909e-06 7.2887e-06 7.28869e-06 7.28869e-06 7.28869e-06 7.28869e-06 7.28904e-06 7.28907e-06 7.28911e-06 7.28918e-06 7.28928e-06 7.2894e-06
          7.28955e-06 7.28973e-06 7.28994e-06 7.29016e-06 7.29041e-06 7.29065e-06 7.29088e-06 7.29106e-06 7.29118e-06 7.29122e-06 7.289e-06 7.289e-06
          7.289e-06 7.28899e-06 7.2887e-06 7.28869e-06 7.28869e-06 7.28869e-06 7.28869e-06 7.28898e-06 7.289e-06 7.28904e-06 7.2891e-06 7.28918e-06
          7.28928e-06 7.2894e-06 7.28955e-06 7.28971e-06 7.28989e-06 7.29007e-06 7.29026e-06 7.29042e-06 7.29056e-06 7.29065e-06 7.29068e-06 7.28891e-06
          7.28891e-06 7.28891e-06 7.28891e-06 7.28869e-06 7.28869e-06 7.28869e-06 7.28869e-06 7.28869e-06 7.28891e-06 7.28893e-06 7.28896e-06 7.28901e-06
          7.28908e-06 7.28916e-06 7.28926e-06 7.28938e-06 7.28951e-06 7.28965e-06 7.28979e-06 7.28993e-06 7.29005e-06 7.29015e-06 7.29021e-06 7.29024e-06
          7.28881e-06 7.28881e-06 7.28881e-06 7.28881e-06 7.28869e-06 7.28869e-06 7.28869e-06 7.28869e-06 7.28869e-06 7.28883e-06 7.28884e-06 7.28887e-06
          7.28891e-06 7.28897e-06 7.28904e-06 7.28912e-06 7.28921e-06 7.28932e-06 7.28943e-06 7.28954e-06 7.28964e-06 7.28973e-06 7.28981e-06 7.28985e-06
          7.28987e-06 7.28824e-06 7.28824e-06 7.28824e-06 7.28824e-06 7.28869e-06 7.28869e-06 7.28869e-06 7.28869e-06 7.28869e-06 7.28826e-06 7.28828e-06
          7.2883e-06 7.28834e-06 7.28839e-06 7.28844e-06 7.28851e-06 7.28859e-06 7.28867e-06 7.28876e-06 7.28885e-06 7.28893e-06 7.289e-06 7.28906e-06
          7.28909e-06 7.2891e-06 7.279e-06 7.279e-06 7.279e-06 7.279e-06 7.28991e-06 7.28991e-06 7.28991e-06 7.28991e-06 7.28991e-06 7.27903e-06
          7.27904e-06 7.27906e-06 7.2791e-06 7.27914e-06 7.27919e-06 7.27925e-06 7.27932e-06 7.27939e-06 7.27946e-06 7.27954e-06 7.27961e-06 7.27967e-06