<?xml version="1.0"?>
<VTKFile type="UnstructuredGrid" version="0.1" byte_order="LittleEndian">
  <UnstructuredGrid>
    <Piece NumberOfCells="384" NumberOfPoints="425">
      <PointData Scalars="pressure_l">
        <DataArray type="Float32" Name="pressure_l" NumberOfComponents="1" format="ascii">
          100010 100048 100005 100028 100066 100043 100076 100050 100005 100003 100002 100000
          100002 100000 100002 100000 100026 100023 100893 100858 100940 100907 101040 101006
          101193 101158 101404 101367 101676 101636 102013 101970 102421 102374 102902 102849
          103461 103401 104103 104033 104842 104752 105704 105580 106731 106579 108792 108661
          188381 184674 100003 100017 100027 100031 100002 100000 100000 100000 100021 100817
          100865 100962 101110 101313 101575 101899 102290 102751 103282 103886 104558 105290
          106092 107726 184350 100002 100010 100016 100019 100001 100000 100000 100000 100019
          100769 100815 100908 101050 101244 101493 101802 102174 102610 103113 103680 104300
          104936 105450 105889 183525 100001 100004 100008 100009 100001 100000 100000 100000
          100018 100715 100759 100846 100979 101160 101394 101682 102029 102435 102902 103429
          104011 104632 105191 104002 168728 99998.8 99999.5 100001 100002 100000 100000 100000
          100000 100016 100656 100697 100777 100900 101067 101281 101545 101862 102232 102657
          103138 103681 104315 105213 108505 100309 99993.5 99993.8 99994.3 99994.7 100000 100000
          100000 100000 100014 100594 100630 100703 100814 100965 101158 101395 101678 102008
          102385 102809 103287 103839 104530 104615 104263 99987.1 99987.2 99987.5 99987.7 99999.7
          100000 100000 100000 100012 100530 100562 100627 100726 100860 101030 101239 101486
          101773 102096 102455 102843 103248 103585 103733 103746 99979.7 99979.8 99979.9 99980.1
          99999.5 100000 100000 100000 100010 100465 100494 100551 100637 100754 100902 101082
          101294 101536 101806 102098 102399 102686 102914 103048 103089 99971.2 99971.3 99971.4
          99971.6 99999.2 100000 100000 100000 100009 100401 100426 100475 100550 100651 100777
          100930 101108 101309 101530 101762 101992 102203 102371 102476 102512 99961.5 99961.5
          99961.7 99961.9 99998.9 100000 100000 100000 100007 100338 100360 100403 100467 100553
          100660 100788 100935 101100 101277 101460 101637 101796 101921 102001 102029 99950.3
          99950.4 99950.6 99950.8 99998.4 100000 100000 100000 100005 100279 100298 100335 100390
          100462 100552 100659 100780 100914 101056 101200 101337 101458 101553 101613 101634
          99937.5 99937.6 99937.9 99938.2 99997.9 100000 100000 100000 100004 100223 100239 100272
          100319 100381 100457 100546 100646 100755 100869 100983 101090 101184 101257 101303
          101319 99922.8 99923.1 99923.7 99924 99997.3 99999.9 100000 100000 100002 100169 100185
          100214 100257 100310 100375 100451 100535 100625 100718 100810 100896 100970 101028
          101064 101077 99905.6 99906.4 99908.6 99908.1 99995.1 99998.1 99998.7 99999.1 100000 100116
          100133 100163 100203 100251 100309 100374 100447 100524 100603 100680 100751 100813
          100860 100890 100900 99884.9 99886.4 99891.3 99905 99917.6 99939.7 99962.5 99988.6 100022
          100052 100088 100121 100159 100204 100257 100317 100383 100452 100523 100591 100655
          100708 100750 100776 100785 99859.8 99861.6 99867.8 99878.5 99893.4 99912.5 99935 99961
          99990.1 100021 100053 100088 100126 100170 100222 100280 100343 100410 100478 100544
          100604 100655 100695 100720 100728
        </DataArray>
        <DataArray type="Float32" Name="pressure_g" NumberOfComponents="1" format="ascii">
          100010 100048 100005 100028 100066 100043 100076 100050 100005 100003 100002 100000
          100002 100000 100002 100000 100026 100023 100893 100858 100940 100907 101040 101006
          101193 101158 101404 101367 101676 101636 102013 101970 102421 102374 102902 102849
          103461 103401 104103 104033 104842 104752 105704 105580 106731 106579 108792 108661
          188381 184674 100003 100017 100027 100031 100002 100000 100000 100000 100021 100817
          100865 100962 101110 101313 101575 101899 102290 102751 103282 103886 104558 105290
          106092 107726 184350 100002 100010 100016 100019 100001 100000 100000 100000 100019
          100769 100815 100908 101050 101244 101493 101802 102174 102610 103113 103680 104300
          104936 105450 105889 183525 100001 100004 100008 100009 100001 100000 100000 100000
          100018 100715 100759 100846 100979 101160 101394 101682 102029 102435 102902 103429
          104011 104632 105191 104002 168728 99998.8 99999.5 100001 100002 100000 100000 100000
          100000 100016 100656 100697 100777 100900 101067 101281 101545 101862 102232 102657
          103138 103681 104315 105213 108505 100309 99993.5 99993.8 99994.3 99994.7 100000 100000
          100000 100000 100014 100594 100630 100703 100814 100965 101158 101395 101678 102008
          102385 102809 103287 103839 104530 104615 104263 99987.1 99987.2 99987.5 99987.7 99999.7
          100000 100000 100000 100012 100530 100562 100627 100726 100860 101030 101239 101486
          101773 102096 102455 102843 103248 103585 103733 103746 99979.7 99979.8 99979.9 99980.1
          99999.5 100000 100000 100000 100010 100465 100494 100551 100637 100754 100902 101082
          101294 101536 101806 102098 102399 102686 102914 103048 103089 99971.2 99971.3 99971.4
          99971.6 99999.2 100000 100000 100000 100009 100401 100426 100475 100550 100651 100777
          100930 101108 101309 101530 101762 101992 102203 102371 102476 102512 99961.5 99961.5
          99961.7 99961.9 99998.9 100000 100000 100000 100007 100338 100360 100403 100467 100553
          100660 100788 100935 101100 101277 101460 101637 101796 101921 102001 102029 99950.3
          99950.4 99950.6 99950.8 99998.4 100000 100000 100000 100005 100279 100298 100335 100390
          100462 100552 100659 100780 100914 101056 101200 101337 101458 101553 101613 101634
          99937.5 99937.6 99937.9 99938.2 99997.9 100000 100000 100000 100004 100223 100239 100272
          100319 100381 100457 100546 100646 100755 100869 100983 101090 101184 101257 101303
          101319 99922.8 99923.1 99923.7 99924 99997.3 99999.9 100000 100000 100002 100169 100185
          100214 100257 100310 100375 100451 100535 100625 100718 100810 100896 100970 101028
          101064 101077 99905.6 99906.4 99908.6 99908.1 99995.1 99998.1 99998.7 99999.1 100000 100116
          100133 100163 100203 100251 100309 100374 100447 100524 100603 100680 100751 100813
          100860 100890 100900 99884.9 99886.4 99891.3 99905 99917.6 99939.7 99962.5 99988.6 100022
          100052 100088 100121 100159 100204 100257 100317 100383 100452 100523 100591 100655
          100708 100750 100776 100785 99859.8 99861.6 99867.8 99878.5 99893.4 99912.5 99935 99961
          99990.1 100021 100053 100088 100126 100170 100222 100280 100343 100410 100478 100544
          100604 100655 100695 100720 100728
        </DataArray>
        <DataArray type="Float32" Name="density_l" NumberOfComponents="1" format="ascii">
          997.068 997.068 997.068 997.068 997.068 997.068 997.068 997.068 997.068 997.068 997.068 997.068
          997.068 997.068 997.068 997.068 997.068 997.068 997.068 997.068 997.068 997.068 997.068 997.068
          997.068 997.068 997.068 997.068 997.069 997.069 997.069 997.069 997.069 997.069 997.069 997.069
          997.069 997.069 997.069 997.069 997.068 997.068 997.062 997.063 997.057 997.057 997.058 997.058
          997.099 997.097 997.068 997.068 997.068 997.068 997.068 997.068 997.068 997.068 997.068 997.068
          997.068 997.068 997.068 997.068 997.068 997.069 997.069 997.069 997.069 997.069 997.068 997.063
          997.057 997.058 997.097 997.068 997.068 997.068 997.068 997.068 997.068 997.068 997.068 997.068
          997.068 997.068 997.068 997.068 997.068 997.068 997.069 997.069 997.069 997.069 997.069 997.069
          997.064 997.057 997.057 997.097 997.068 997.068 997.068 997.068 997.068 997.068 997.068 997.068
          997.068 997.068 997.068 997.068 997.068 997.068 997.068 997.069 997.069 997.069 997.069 997.069
          997.069 997.065 997.057 997.056 997.089 997.068 997.068 997.068 997.068 997.068 997.068 997.068
          997.068 997.068 997.068 997.068 997.068 997.068 997.068 997.068 997.068 997.069 997.069 997.069
          997.069 997.069 997.068 997.061 997.058 997.054 997.068 997.068 997.068 997.068 997.068 997.068
          997.068 997.068 997.068 997.068 997.068 997.068 997.068 997.068 997.068 997.068 997.069 997.069
          997.069 997.069 997.069 997.069 997.067 997.061 997.066 997.068 997.068 997.068 997.068 997.068
          997.068 997.068 997.068 997.068 997.068 997.068 997.068 997.068 997.068 997.068 997.068 997.068
          997.069 997.069 997.069 997.069 997.069 997.069 997.068 997.069 997.068 997.068 997.068 997.068
          997.068 997.068 997.068 997.068 997.068 997.068 997.068 997.068 997.068 997.068 997.068 997.068
          997.068 997.068 997.069 997.069 997.069 997.069 997.069 997.069 997.069 997.068 997.068 997.068
          997.068 997.068 997.068 997.068 997.068 997.068 997.068 997.068 997.068 997.068 997.068 997.068
          997.068 997.068 997.068 997.068 997.069 997.069 997.069 997.069 997.069 997.069 997.068 997.068
          997.068 997.068 997.068 997.068 997.068 997.068 997.068 997.068 997.068 997.068 997.068 997.068
          997.068 997.068 997.068 997.068 997.068 997.068 997.069 997.069 997.069 997.069 997.069 997.068
          997.068 997.068 997.068 997.068 997.068 997.068 997.068 997.068 997.068 997.068 997.068 997.068
          997.068 997.068 997.068 997.068 997.068 997.068 997.068 997.068 997.068 997.068 997.069 997.069
          997.068 997.068 997.068 997.068 997.068 997.068 997.068 997.068 997.068 997.068 997.068 997.068
          997.068 997.068 997.068 997.068 997.068 997.068 997.068 997.068 997.068 997.068 997.068 997.068
          997.068 997.068 997.068 997.068 997.068 997.068 997.068 997.068 997.068 997.068 997.068 997.068
          997.068 997.068 997.068 997.068 997.068 997.068 997.068 997.068 997.068 997.068 997.068 997.068
          997.068 997.068 997.068 997.068 997.068 997.068 997.068 997.068 997.068 997.068 997.068 997.068
          997.068 997.068 997.068 997.068 997.068 997.068 997.068 997.068 997.068 997.068 997.068 997.068
          997.068 997.068 997.068 997.068 997.068 997.068 997.068 997.068 997.068 997.068 997.068 997.068
          997.068 997.068 997.068 997.068 997.068 997.068 997.068 997.068 997.068 997.068 997.068 997.068
          997.068 997.068 997.068 997.068 997.068 997.068 997.068 997.068 997.068 997.068 997.068 997.068
          997.068 997.068 997.068 997.068 997.068 997.068 997.068 997.068 997.068 997.068 997.068 997.068
          997.068 997.068 997.068 997.068 997.068
        </DataArray>
        <DataArray type="Float32" Name="density_g" NumberOfComponents="1" format="ascii">
          1.12612 1.12655 1.12606 1.12631 1.12675 1.12648 1.12686 1.12656 1.12606 1.12603 1.12602 1.126
          1.12602 1.126 1.12602 1.12601 1.12629 1.12626 1.13605 1.13567 1.13659 1.13622 1.13771 1.13733
          1.13944 1.13905 1.14181 1.1414 1.14487 1.14443 1.14867 1.14819 1.15326 1.15273 1.15868 1.15809
          1.16497 1.16429 1.17215 1.17136 1.18005 1.17907 1.18755 1.18623 1.19336 1.19164 1.21665 1.21517
          2.11605 2.07415 1.12604 1.12619 1.1263 1.12636 1.12602 1.126 1.126 1.12601 1.12624 1.1352
          1.13575 1.13684 1.1385 1.14079 1.14374 1.14739 1.15179 1.15697 1.16296 1.16972 1.17696 1.18328
          1.18614 1.2046 2.0705 1.12602 1.12611 1.12618 1.12621 1.12601 1.126 1.126 1.126 1.12622
          1.13466 1.13518 1.13623 1.13782 1.14001 1.14281 1.14629 1.15048 1.1554 1.16106 1.16741 1.17417
          1.1798 1.17889 1.18385 2.06114 1.12602 1.12605 1.12609 1.12611 1.12601 1.126 1.126 1.126
          1.1262 1.13406 1.13455 1.13553 1.13702 1.13907 1.1417 1.14495 1.14885 1.15342 1.15868 1.1646
          1.171 1.17665 1.17597 1.16253 1.89395 1.12599 1.126 1.12601 1.12602 1.12601 1.126 1.126
          1.126 1.12618 1.13339 1.13385 1.13475 1.13613 1.13801 1.14043 1.1434 1.14696 1.15113 1.15592
          1.16134 1.16741 1.17413 1.18144 1.21341 1.1208 1.12593 1.12593 1.12594 1.12594 1.126 1.126
          1.126 1.126 1.12616 1.13269 1.1331 1.13392 1.13517 1.13687 1.13904 1.14171 1.1449 1.14861
          1.15285 1.15763 1.16301 1.16915 1.17634 1.17472 1.173 1.12586 1.12586 1.12586 1.12586 1.126
          1.126 1.126 1.126 1.12614 1.13197 1.13233 1.13307 1.13418 1.13569 1.13761 1.13995 1.14274
          1.14596 1.14961 1.15364 1.15802 1.16257 1.1663 1.16766 1.16809 1.12577 1.12578 1.12578 1.12578
          1.126 1.126 1.126 1.126 1.12612 1.13123 1.13156 1.1322 1.13318 1.13449 1.13616 1.13819
          1.14057 1.1433 1.14634 1.14963 1.15302 1.15624 1.15881 1.1603 1.16078 1.12568 1.12568 1.12568
          1.12568 1.12599 1.126 1.126 1.126 1.1261 1.13051 1.1308 1.13136 1.1322 1.13333 1.13475
          1.13647 1.13848 1.14075 1.14323 1.14584 1.14844 1.15081 1.1527 1.15388 1.15428 1.12557 1.12557
          1.12557 1.12557 1.12599 1.126 1.126 1.126 1.12608 1.12981 1.13006 1.13054 1.13126 1.13222
          1.13343 1.13487 1.13653 1.13839 1.14039 1.14244 1.14444 1.14623 1.14764 1.14854 1.14885 1.12544
          1.12544 1.12545 1.12545 1.12599 1.126 1.126 1.126 1.12606 1.12915 1.12936 1.12977 1.13039
          1.13121 1.13222 1.13342 1.13479 1.1363 1.13789 1.13951 1.14106 1.14242 1.14349 1.14417 1.1444
          1.1253 1.1253 1.1253 1.12531 1.12598 1.126 1.126 1.126 1.12605 1.12851 1.1287 1.12906
          1.1296 1.13029 1.13115 1.13215 1.13328 1.13451 1.13579 1.13707 1.13828 1.13934 1.14016 1.14068
          1.14086 1.12513 1.12514 1.12514 1.12515 1.12597 1.126 1.126 1.126 1.12603 1.12791 1.12808
          1.12842 1.12889 1.1295 1.13023 1.13108 1.13202 1.13304 1.13409 1.13513 1.13609 1.13693 1.13758
          1.13799 1.13813 1.12494 1.12495 1.12497 1.12497 1.12595 1.12598 1.12599 1.12599 1.12601 1.12731
          1.1275 1.12784 1.12829 1.12883 1.12948 1.13022 1.13103 1.1319 1.13279 1.13366 1.13446 1.13515
          1.13569 1.13602 1.13614 1.12471 1.12472 1.12478 1.12493 1.12507 1.12532 1.12558 1.12587 1.12625
          1.12659 1.12699 1.12736 1.12779 1.12831 1.1289 1.12958 1.13031 1.1311 1.13189 1.13266 1.13337
          1.13398 1.13445 1.13474 1.13484 1.12442 1.12444 1.12451 1.12464 1.1248 1.12502 1.12527 1.12556
          1.12589 1.12624 1.1266 1.12699 1.12742 1.12792 1.1285 1.12915 1.12987 1.13062 1.13138 1.13212
          1.1328 1.13338 1.13383 1.1341 1.1342
        </DataArray>
        <DataArray type="Float32" Name="saturation_l" NumberOfComponents="1" format="ascii">
          0 0 0 0 0 0 0 0 0 0 0 0
          0 0 0 0 0 0 0 0 0 0 0 0
          0 0 0 0 0 0 0 0 0 0 0 0
          0 0 0 0 0 0 0 0 0.00204635 0.00181024 0.423528 0.364904
          0.998307 0.998836 0 0 0 0 0 0 0 0 0 0
          0 0 0 0 0 0 0 0 0 0 0 0
          0.00137285 0.36467 0.999097 0 0 0 0 0 0 0 0 0
          0 0 0 0 0 0 0 0 0 0 0 0
          0 0.00029591 0.346183 1 0 0 0 0 0 0 0 0
          0 0 0 0 0 0 0 0 0 0 0 0
          0 0 1.60244e-05 0.215359 0.996732 0 0 0 0 0 0 0
          0 0 0 0 0 0 0 0 0 0 0 0
          0 0 0 0 0.000566871 0.0866938 0 0 0 0 0 0
          0 0 0 0 0 0 0 0 0 0 0 0
          0 0 0 0 0 0 0 0 0 0 0 0
          0 0 0 0 0 0 0 0 0 0 0 0
          0 0 0 0 0 0 0 0 0 0 0 0
          0 0 0 0 0 0 0 0 0 0 0 0
          0 0 0 0 0 0 0 0 0 0 0 0
          0 0 0 0 0 0 0 0 0 0 0 0
          0 0 0 0 0 0 0 0 0 0 0 0
          0 0 0 0 0 0 0 0 0 0 0 0
          0 0 0 0 0 0 0 0 0 0 0 0
          0 0 0 0 0 0 0 0 0 0 0 0
          0 0 0 0 0 0 0 0 0 0 0 0
          0 0 0 0 0 0 0 0 0 0 0 0
          0 0 0 0 0 0 0 0 0 0 0 0
          0 0 0 0 0 0 0 0 0 0 0 0
          0 0 0 0 0 0 0 0 0 0 0 0
          0 0 0 0 0 0 0 0 0 0 0 0
          0 0 0 0 0 0 0 0 0 0 0 0
          0 0 0 0 0 0 0 0 0 0 0 0
          0 0 0 0 0 0 0 0 0 0 0 0
          0 0 0 0 0 0 0 0 0 0 0 0
          0 0 0 0 0 0 0 0 0 0 0 0
          0 0 0 0 0
        </DataArray>
        <DataArray type="Float32" Name="saturation_g" NumberOfComponents="1" format="ascii">
          1 1 1 1 1 1 1 1 1 1 1 1
          1 1 1 1 1 1 1 1 1 1 1 1
          1 1 1 1 1 1 1 1 1 1 1 1
          1 1 1 1 1 1 1 1 0.997954 0.99819 0.576472 0.635096
          0.00169301 0.00116413 1 1 1 1 1 1 1 1 1 1
          1 1 1 1 1 1 1 1 1 1 1 1
          0.998627 0.63533 0.000903236 1 1 1 1 1 1 1 1 1
          1 1 1 1 1 1 1 1 1 1 1 1
          1 0.999704 0.653817 0 1 1 1 1 1 1 1 1
          1 1 1 1 1 1 1 1 1 1 1 1
          1 1 0.999984 0.784642 0.00326802 1 1 1 1 1 1 1
          1 1 1 1 1 1 1 1 1 1 1 1
          1 1 1 1 0.999433 0.913306 1 1 1 1 1 1
          1 1 1 1 1 1 1 1 1 1 1 1
          1 1 1 1 1 1 1 1 1 1 1 1
          1 1 1 1 1 1 1 1 1 1 1 1
          1 1 1 1 1 1 1 1 1 1 1 1
          1 1 1 1 1 1 1 1 1 1 1 1
          1 1 1 1 1 1 1 1 1 1 1 1
          1 1 1 1 1 1 1 1 1 1 1 1
          1 1 1 1 1 1 1 1 1 1 1 1
          1 1 1 1 1 1 1 1 1 1 1 1
          1 1 1 1 1 1 1 1 1 1 1 1
          1 1 1 1 1 1 1 1 1 1 1 1
          1 1 1 1 1 1 1 1 1 1 1 1
          1 1 1 1 1 1 1 1 1 1 1 1
          1 1 1 1 1 1 1 1 1 1 1 1
          1 1 1 1 1 1 1 1 1 1 1 1
          1 1 1 1 1 1 1 1 1 1 1 1
          1 1 1 1 1 1 1 1 1 1 1 1
          1 1 1 1 1 1 1 1 1 1 1 1
          1 1 1 1 1 1 1 1 1 1 1 1
          1 1 1 1 1 1 1 1 1 1 1 1
          1 1 1 1 1 1 1 1 1 1 1 1
          1 1 1 1 1 1 1 1 1 1 1 1
          1 1 1 1 1
        </DataArray>
        <DataArray type="Float32" Name="relativePerm_l" NumberOfComponents="1" format="ascii">
          0 0 0 0 0 0 0 0 0 0 0 0
          0 0 0 0 0 0 0 0 0 0 0 0
          0 0 0 0 0 0 0 0 0 0 0 0
          0 0 0 0 0 0 0 0 3.74132e-05 2.92604e-05 0.41928 0.357399
          0.999974 0.999988 0 0 0 0 0 0 0 0 0 0
          0 0 0 0 0 0 0 0 0 0 0 0
          1.68106e-05 0.357152 0.999993 0 0 0 0 0 0 0 0 0
          0 0 0 0 0 0 0 0 0 0 0 0
          0 7.78913e-07 0.337638 1 0 0 0 0 0 0 0 0
          0 0 0 0 0 0 0 0 0 0 0 0
          0 0 2.28259e-09 0.199545 0.999904 0 0 0 0 0 0 0
          0 0 0 0 0 0 0 0 0 0 0 0
          0 0 0 0 2.86043e-06 0.0637323 0 0 0 0 0 0
          0 0 0 0 0 0 0 0 0 0 0 0
          0 0 0 0 0 0 0 0 0 0 0 0
          0 0 0 0 0 0 0 0 0 0 0 0
          0 0 0 0 0 0 0 0 0 0 0 0
          0 0 0 0 0 0 0 0 0 0 0 0
          0 0 0 0 0 0 0 0 0 0 0 0
          0 0 0 0 0 0 0 0 0 0 0 0
          0 0 0 0 0 0 0 0 0 0 0 0
          0 0 0 0 0 0 0 0 0 0 0 0
          0 0 0 0 0 0 0 0 0 0 0 0
          0 0 0 0 0 0 0 0 0 0 0 0
          0 0 0 0 0 0 0 0 0 0 0 0
          0 0 0 0 0 0 0 0 0 0 0 0
          0 0 0 0 0 0 0 0 0 0 0 0
          0 0 0 0 0 0 0 0 0 0 0 0
          0 0 0 0 0 0 0 0 0 0 0 0
          0 0 0 0 0 0 0 0 0 0 0 0
          0 0 0 0 0 0 0 0 0 0 0 0
          0 0 0 0 0 0 0 0 0 0 0 0
          0 0 0 0 0 0 0 0 0 0 0 0
          0 0 0 0 0 0 0 0 0 0 0 0
          0 0 0 0 0 0 0 0 0 0 0 0
          0 0 0 0 0
        </DataArray>
        <DataArray type="Float32" Name="relativePerm_g" NumberOfComponents="1" format="ascii">
          1 1 1 1 1 1 1 1 1 1 1 1
          1 1 1 1 1 1 1 1 1 1 1 1
          1 1 1 1 1 1 1 1 1 1 1 1
          1 1 1 1 1 1 1 1 0.999963 0.999971 0.58072 0.642601
          2.55859e-05 1.20812e-05 1 1 1 1 1 1 1 1 1 1
          1 1 1 1 1 1 1 1 1 1 1 1
          0.999983 0.642848 7.26825e-06 1 1 1 1 1 1 1 1 1
          1 1 1 1 1 1 1 1 1 1 1 1
          1 0.999999 0.662362 0 1 1 1 1 1 1 1 1
          1 1 1 1 1 1 1 1 1 1 1 1
          1 1 1 0.800455 9.57084e-05 1 1 1 1 1 1 1
          1 1 1 1 1 1 1 1 1 1 1 1
          1 1 1 1 0.999997 0.936268 1 1 1 1 1 1
          1 1 1 1 1 1 1 1 1 1 1 1
          1 1 1 1 1 1 1 1 1 1 1 1
          1 1 1 1 1 1 1 1 1 1 1 1
          1 1 1 1 1 1 1 1 1 1 1 1
          1 1 1 1 1 1 1 1 1 1 1 1
          1 1 1 1 1 1 1 1 1 1 1 1
          1 1 1 1 1 1 1 1 1 1 1 1
          1 1 1 1 1 1 1 1 1 1 1 1
          1 1 1 1 1 1 1 1 1 1 1 1
          1 1 1 1 1 1 1 1 1 1 1 1
          1 1 1 1 1 1 1 1 1 1 1 1
          1 1 1 1 1 1 1 1 1 1 1 1
          1 1 1 1 1 1 1 1 1 1 1 1
          1 1 1 1 1 1 1 1 1 1 1 1
          1 1 1 1 1 1 1 1 1 1 1 1
          1 1 1 1 1 1 1 1 1 1 1 1
          1 1 1 1 1 1 1 1 1 1 1 1
          1 1 1 1 1 1 1 1 1 1 1 1
          1 1 1 1 1 1 1 1 1 1 1 1
          1 1 1 1 1 1 1 1 1 1 1 1
          1 1 1 1 1 1 1 1 1 1 1 1
          1 1 1 1 1 1 1 1 1 1 1 1
          1 1 1 1 1
        </DataArray>
        <DataArray type="Float32" Name="porosity" NumberOfComponents="1" format="ascii">
          0.3 0.3 0.3 0.3 0.3 0.3 0.3 0.3 0.3 0.3 0.3 0.3
          0.3 0.3 0.3 0.3 0.3 0.3 0.3 0.3 0.3 0.3 0.3 0.3
          0.3 0.3 0.3 0.3 0.3 0.3 0.3 0.3 0.3 0.3 0.3 0.3
          0.3 0.3 0.3 0.3 0.3 0.3 0.3 0.3 0.3 0.3 0.3 0.3
          0.3 0.3 0.3 0.3 0.3 0.3 0.3 0.3 0.3 0.3 0.3 0.3
          0.3 0.3 0.3 0.3 0.3 0.3 0.3 0.3 0.3 0.3 0.3 0.3
          0.3 0.3 0.3 0.3 0.3 0.3 0.3 0.3 0.3 0.3 0.3 0.3
          0.3 0.3 0.3 0.3 0.3 0.3 0.3 0.3 0.3 0.3 0.3 0.3
          0.3 0.3 0.3 0.3 0.3 0.3 0.3 0.3 0.3 0.3 0.3 0.3
          0.3 0.3 0.3 0.3 0.3 0.3 0.3 0.3 0.3 0.3 0.3 0.3
          0.3 0.3 0.3 0.3 0.3 0.3 0.3 0.3 0.3 0.3 0.3 0.3
          0.3 0.3 0.3 0.3 0.3 0.3 0.3 0.3 0.3 0.3 0.3 0.3
          0.3 0.3 0.3 0.3 0.3 0.3 0.3 0.3 0.3 0.3 0.3 0.3
          0.3 0.3 0.3 0.3 0.3 0.3 0.3 0.3 0.3 0.3 0.3 0.3
          0.3 0.3 0.3 0.3 0.3 0.3 0.3 0.3 0.3 0.3 0.3 0.3
          0.3 0.3 0.3 0.3 0.3 0.3 0.3 0.3 0.3 0.3 0.3 0.3
          0.3 0.3 0.3 0.3 0.3 0.3 0.3 0.3 0.3 0.3 0.3 0.3
          0.3 0.3 0.3 0.3 0.3 0.3 0.3 0.3 0.3 0.3 0.3 0.3
          0.3 0.3 0.3 0.3 0.3 0.3 0.3 0.3 0.3 0.3 0.3 0.3
          0.3 0.3 0.3 0.3 0.3 0.3 0.3 0.3 0.3 0.3 0.3 0.3
          0.3 0.3 0.3 0.3 0.3 0.3 0.3 0.3 0.3 0.3 0.3 0.3
          0.3 0.3 0.3 0.3 0.3 0.3 0.3 0.3 0.3 0.3 0.3 0.3
          0.3 0.3 0.3 0.3 0.3 0.3 0.3 0.3 0.3 0.3 0.3 0.3
          0.3 0.3 0.3 0.3 0.3 0.3 0.3 0.3 0.3 0.3 0.3 0.3
          0.3 0.3 0.3 0.3 0.3 0.3 0.3 0.3 0.3 0.3 0.3 0.3
          0.3 0.3 0.3 0.3 0.3 0.3 0.3 0.3 0.3 0.3 0.3 0.3
          0.3 0.3 0.3 0.3 0.3 0.3 0.3 0.3 0.3 0.3 0.3 0.3
          0.3 0.3 0.3 0.3 0.3 0.3 0.3 0.3 0.3 0.3 0.3 0.3
          0.3 0.3 0.3 0.3 0.3 0.3 0.3 0.3 0.3 0.3 0.3 0.3
          0.3 0.3 0.3 0.3 0.3 0.3 0.3 0.3 0.3 0.3 0.3 0.3
          0.3 0.3 0.3 0.3 0.3 0.3 0.3 0.3 0.3 0.3 0.3 0.3
          0.3 0.3 0.3 0.3 0.3 0.3 0.3 0.3 0.3 0.3 0.3 0.3
          0.3 0.3 0.3 0.3 0.3 0.3 0.3 0.3 0.3 0.3 0.3 0.3
          0.3 0.3 0.3 0.3 0.3 0.3 0.3 0.3 0.3 0.3 0.3 0.3
          0.3 0.3 0.3 0.3 0.3 0.3 0.3 0.3 0.3 0.3 0.3 0.3
          0.3 0.3 0.3 0.3 0.3
        </DataArray>
        <DataArray type="Float32" Name="moleFrac_l^H2O" NumberOfComponents="1" format="ascii">
          0.315516 0.315635 0.315499 0.31557 0.315692 0.315618 0.315723 0.315639 0.315499 0.315491 0.315488 0.315483
          0.315488 0.315483 0.315489 0.315483 0.315563 0.315555 0.318299 0.31819 0.318448 0.318344 0.318763 0.318657
          0.319247 0.319137 0.319912 0.319795 0.320769 0.320645 0.321834 0.321699 0.32312 0.322972 0.324661 0.324493
          0.326777 0.326555 0.332813 0.332256 0.367807 0.365349 0.544642 0.537577 0.999988 0.999988 0.999988 0.999988
          0.999979 0.999979 0.315492 0.315535 0.315566 0.315582 0.315488 0.315483 0.315483 0.315483 0.315549 0.318061
          0.318212 0.318518 0.318985 0.319625 0.320451 0.321474 0.322708 0.324176 0.326097 0.330926 0.358524 0.512314
          0.999988 0.999988 0.999979 0.315488 0.315513 0.315532 0.315541 0.315486 0.315483 0.315483 0.315483 0.315544
          0.317909 0.318055 0.318347 0.318794 0.319406 0.320193 0.321167 0.32234 0.323727 0.325458 0.329138 0.349177
          0.47207 0.999988 0.999988 0.999979 0.315486 0.315497 0.315506 0.315512 0.315484 0.315483 0.315483 0.315483
          0.315538 0.317739 0.317876 0.318151 0.318571 0.319143 0.31988 0.32079 0.321883 0.323169 0.324713 0.32746
          0.341951 0.449101 0.999988 0.999988 0.999981 0.315479 0.315481 0.315485 0.315488 0.315483 0.315483 0.315483
          0.315483 0.315533 0.317553 0.31768 0.317934 0.31832 0.318847 0.319523 0.320357 0.321355 0.322524 0.323878
          0.325622 0.33048 0.365348 0.588972 0.999988 0.999989 0.315462 0.315463 0.315465 0.315466 0.315483 0.315483
          0.315483 0.315483 0.315527 0.317356 0.317472 0.317702 0.318052 0.318528 0.319137 0.319885 0.320777 0.321817
          0.323007 0.324375 0.32634 0.333698 0.381997 0.585693 0.407953 0.315442 0.315442 0.315443 0.315444 0.315482
          0.315483 0.315483 0.315483 0.315521 0.317153 0.317256 0.317462 0.317773 0.318196 0.318734 0.319392 0.320172
          0.321075 0.322096 0.323229 0.324496 0.326325 0.332551 0.357399 0.335102 0.315419 0.315419 0.315419 0.31542
          0.315481 0.315483 0.315483 0.315483 0.315516 0.316948 0.31704 0.31722 0.317493 0.317861 0.318328 0.318896
          0.319565 0.32033 0.321182 0.322102 0.323055 0.323995 0.325088 0.327447 0.325943 0.315392 0.315392 0.315392
          0.315393 0.31548 0.315483 0.315483 0.315483 0.31551 0.316746 0.316826 0.316983 0.317218 0.317535 0.317935
          0.318417 0.318979 0.319614 0.320309 0.32104 0.321769 0.322436 0.322983 0.323427 0.323454 0.315361 0.315361
          0.315362 0.315362 0.315479 0.315483 0.315483 0.315483 0.315505 0.31655 0.316619 0.316754 0.316956 0.317226
          0.317563 0.317967 0.318433 0.318953 0.319512 0.320088 0.320648 0.321149 0.321545 0.321802 0.321885 0.315326
          0.315326 0.315327 0.315327 0.315478 0.315483 0.315483 0.315483 0.3155 0.316363 0.316423 0.316539 0.316712
          0.31694 0.317224 0.31756 0.317944 0.318366 0.318814 0.319267 0.3197 0.320082 0.320381 0.320573 0.320638
          0.315285 0.315286 0.315287 0.315288 0.315476 0.315483 0.315483 0.315483 0.315495 0.316185 0.316238 0.31634
          0.316489 0.316684 0.316924 0.317204 0.317521 0.317865 0.318225 0.318584 0.318923 0.319218 0.319448 0.319595
          0.319645 0.315239 0.31524 0.315242 0.315243 0.315474 0.315482 0.315483 0.315483 0.31549 0.316016 0.316065
          0.316159 0.316292 0.316462 0.316667 0.316904 0.317169 0.317454 0.317748 0.318039 0.318309 0.318544 0.318725
          0.31884 0.318879 0.315185 0.315187 0.315194 0.315193 0.315467 0.315477 0.315478 0.31548 0.315484 0.315849
          0.315903 0.315998 0.316123 0.316275 0.316456 0.316664 0.316892 0.317135 0.317384 0.317628 0.317853 0.318047
          0.318196 0.31829 0.318322 0.31512 0.315124 0.31514 0.315183 0.315223 0.315292 0.315364 0.315447 0.315552
          0.315648 0.315759 0.315863 0.315984 0.316128 0.316295 0.316484 0.316691 0.31691 0.317132 0.317349 0.317548
          0.317718 0.317848 0.31793 0.317958 0.31504 0.315046 0.315065 0.315099 0.315146 0.315206 0.315278 0.315359
          0.315452 0.315549 0.315651 0.315759 0.31588 0.31602 0.316182 0.316365 0.316565 0.316776 0.31699 0.317197
          0.317388 0.31755 0.317674 0.317753 0.317779
        </DataArray>
        <DataArray type="Float32" Name="moleFrac_l^N2" NumberOfComponents="1" format="ascii">
          1.14733e-05 1.14777e-05 1.14727e-05 1.14753e-05 1.14797e-05 1.1477e-05 1.14808e-05 1.14778e-05 1.14727e-05 1.14724e-05 1.14723e-05 1.14721e-05
          1.14723e-05 1.14721e-05 1.14723e-05 1.14721e-05 1.1475e-05 1.14747e-05 1.15745e-05 1.15706e-05 1.15799e-05 1.15762e-05 1.15914e-05 1.15875e-05
          1.1609e-05 1.1605e-05 1.16332e-05 1.16289e-05 1.16644e-05 1.16598e-05 1.17031e-05 1.16982e-05 1.17498e-05 1.17444e-05 1.1805e-05 1.1799e-05
          1.1869e-05 1.18622e-05 1.19412e-05 1.19333e-05 1.2014e-05 1.20045e-05 1.20489e-05 1.20371e-05 1.20006e-05 1.1983e-05 1.22395e-05 1.22243e-05
          2.14623e-05 2.10326e-05 1.14724e-05 1.1474e-05 1.14752e-05 1.14757e-05 1.14723e-05 1.14721e-05 1.14721e-05 1.14721e-05 1.14745e-05 1.15659e-05
          1.15714e-05 1.15825e-05 1.15995e-05 1.16228e-05 1.16528e-05 1.169e-05 1.17348e-05 1.17877e-05 1.18486e-05 1.19167e-05 1.19844e-05 1.20128e-05
          1.19266e-05 1.21159e-05 2.09952e-05 1.14723e-05 1.14732e-05 1.14739e-05 1.14742e-05 1.14722e-05 1.14721e-05 1.14721e-05 1.14721e-05 1.14743e-05
          1.15604e-05 1.15656e-05 1.15763e-05 1.15925e-05 1.16148e-05 1.16434e-05 1.16788e-05 1.17215e-05 1.17716e-05 1.18292e-05 1.18935e-05 1.1958e-05
          1.19866e-05 1.18523e-05 1.19031e-05 2.08527e-05 1.14722e-05 1.14726e-05 1.1473e-05 1.14732e-05 1.14722e-05 1.14721e-05 1.14721e-05 1.14721e-05
          1.14741e-05 1.15542e-05 1.15591e-05 1.15691e-05 1.15844e-05 1.16052e-05 1.1632e-05 1.16651e-05 1.17049e-05 1.17515e-05 1.1805e-05 1.18651e-05
          1.19272e-05 1.19598e-05 1.18223e-05 1.16844e-05 1.91848e-05 1.1472e-05 1.1472e-05 1.14722e-05 1.14723e-05 1.14721e-05 1.14721e-05 1.14721e-05
          1.14721e-05 1.14739e-05 1.15474e-05 1.1552e-05 1.15612e-05 1.15753e-05 1.15945e-05 1.1619e-05 1.16494e-05 1.16857e-05 1.17281e-05 1.17769e-05
          1.1832e-05 1.18932e-05 1.19538e-05 1.19757e-05 1.22062e-05 1.12565e-05 1.14714e-05 1.14714e-05 1.14715e-05 1.14715e-05 1.14721e-05 1.14721e-05
          1.14721e-05 1.14721e-05 1.14737e-05 1.15402e-05 1.15444e-05 1.15528e-05 1.15655e-05 1.15828e-05 1.1605e-05 1.16322e-05 1.16646e-05 1.17025e-05
          1.17457e-05 1.17944e-05 1.1849e-05 1.19103e-05 1.19726e-05 1.19076e-05 1.19322e-05 1.14706e-05 1.14706e-05 1.14707e-05 1.14707e-05 1.14721e-05
          1.14721e-05 1.14721e-05 1.14721e-05 1.14735e-05 1.15329e-05 1.15366e-05 1.15441e-05 1.15554e-05 1.15708e-05 1.15903e-05 1.16143e-05 1.16426e-05
          1.16755e-05 1.17126e-05 1.17537e-05 1.17983e-05 1.18445e-05 1.18813e-05 1.18893e-05 1.1899e-05 1.14698e-05 1.14698e-05 1.14698e-05 1.14698e-05
          1.1472e-05 1.14721e-05 1.14721e-05 1.14721e-05 1.14733e-05 1.15254e-05 1.15287e-05 1.15353e-05 1.15452e-05 1.15586e-05 1.15756e-05 1.15962e-05