<?xml version="1.0"?>
<VTKFile type="UnstructuredGrid" version="0.1" byte_order="LittleEndian">
  <UnstructuredGrid>
    <Piece NumberOfCells="384" NumberOfPoints="425">
      <PointData Scalars="pressure_liquid">
        <DataArray type="Float32" Name="pressure_liquid" NumberOfComponents="1" format="ascii">
          100013 100050 100006 100029 100067 100044 100077 100051 100005 100003 100002 100000
          100002 100000 100002 100000 100024 100021 100860 100826 100907 100874 101005 100972
          101156 101121 101363 101326 101630 101591 101960 101918 102358 102311 102826 102774
          103368 103309 103989 103920 104701 104613 105533 105409 106491 106339 108278 108262
          186114 181803 100004 100017 100027 100032 100002 100000 100000 100000 100020 100785
          100832 100928 101073 101273 101530 101848 102229 102678 103194 103778 104425 105126
          105873 107343 181395 100002 100010 100016 100019 100001 100000 100000 100000 100018
          100737 100783 100874 101014 101204 101449 101752 102115 102541 103030 103579 104177
          104787 105265 105567 180379 100002 100005 100008 100010 100001 100000 100000 100000
          100016 100684 100727 100813 100943 101122 101351 101634 101973 102370 102825 103337
          103901 104502 105043 103983 164475 99999.2 99999.9 100001 100002 100000 100000 100000
          100000 100014 100626 100665 100745 100865 101029 101240 101499 101809 102171 102586
          103055 103584 104202 105082 108226 100502 99993.9 99994.1 99994.7 99995.1 100000 100000
          100000 100000 100013 100564 100600 100672 100781 100929 101119 101351 101629 101952
          102320 102735 103202 103742 104414 104512 104188 99987.3 99987.4 99987.7 99987.9 99999.8
          100000 100000 100000 100011 100501 100533 100597 100694 100825 100993 101197 101440
          101720 102037 102388 102769 103166 103498 103648 103665 99979.8 99979.8 99980 99980.1
          99999.5 100000 100000 100000 100009 100437 100465 100521 100606 100721 100866 101042
          101250 101488 101753 102038 102334 102616 102841 102975 103016 99971.1 99971.1 99971.3
          99971.4 99999.2 100000 100000 100000 100008 100374 100399 100447 100520 100619 100743
          100892 101067 101264 101480 101708 101934 102142 102307 102411 102447 99961.1 99961.2
          99961.3 99961.5 99998.9 100000 100000 100000 100006 100313 100334 100376 100439 100522
          100626 100752 100896 101058 101231 101410 101584 101740 101864 101943 101970 99949.7
          99949.8 99949.9 99950.1 99998.5 100000 100000 100000 100005 100255 100273 100309 100362
          100433 100520 100624 100743 100874 101013 101153 101288 101406 101500 101560 101580
          99936.6 99936.7 99936.9 99937.2 99997.9 100000 100000 100000 100003 100200 100216 100247
          100293 100353 100426 100513 100610 100717 100828 100939 101044 101136 101207 101253
          101269 99921.6 99921.9 99922.3 99922.6 99997.3 99999.9 100000 100000 100002 100148 100163
          100191 100232 100283 100346 100419 100500 100588 100679 100768 100852 100924 100980
          101016 101028 99904.1 99904.9 99906.9 99906 99995 99998 99998.5 99998.8 99999.5 100096
          100113 100141 100179 100225 100280 100343 100413 100488 100564 100639 100709 100768
          100814 100843 100853 99883.2 99884.6 99889.2 99902.3 99912.8 99933.1 99953.7 99977.2 100007
          100036 100068 100099 100136 100179 100229 100287 100350 100417 100485 100552 100613
          100665 100705 100730 100739 99858.1 99859.7 99865.5 99875.4 99888.7 99905.8 99926.2 99949.6
          99976.2 100005 100035 100067 100103 100145 100194 100250 100311 100375 100440 100504
          100562 100612 100650 100674 100683
        </DataArray>
        <DataArray type="Float32" Name="pressure_gas" NumberOfComponents="1" format="ascii">
          100013 100050 100006 100029 100067 100044 100077 100051 100005 100003 100002 100000
          100002 100000 100002 100000 100024 100021 100860 100826 100907 100874 101005 100972
          101156 101121 101363 101326 101630 101591 101960 101918 102358 102311 102826 102774
          103368 103309 103989 103920 104701 104613 105533 105409 106491 106339 108278 108262
          186114 181803 100004 100017 100027 100032 100002 100000 100000 100000 100020 100785
          100832 100928 101073 101273 101530 101848 102229 102678 103194 103778 104425 105126
          105873 107343 181395 100002 100010 100016 100019 100001 100000 100000 100000 100018
          100737 100783 100874 101014 101204 101449 101752 102115 102541 103030 103579 104177
          104787 105265 105567 180379 100002 100005 100008 100010 100001 100000 100000 100000
          100016 100684 100727 100813 100943 101122 101351 101634 101973 102370 102825 103337
          103901 104502 105043 103983 164475 99999.2 99999.9 100001 100002 100000 100000 100000
          100000 100014 100626 100665 100745 100865 101029 101240 101499 101809 102171 102586
          103055 103584 104202 105082 108226 100502 99993.9 99994.1 99994.7 99995.1 100000 100000
          100000 100000 100013 100564 100600 100672 100781 100929 101119 101351 101629 101952
          102320 102735 103202 103742 104414 104512 104188 99987.3 99987.4 99987.7 99987.9 99999.8
          100000 100000 100000 100011 100501 100533 100597 100694 100825 100993 101197 101440
          101720 102037 102388 102769 103166 103498 103648 103665 99979.8 99979.8 99980 99980.1
          99999.5 100000 100000 100000 100009 100437 100465 100521 100606 100721 100866 101042
          101250 101488 101753 102038 102334 102616 102841 102975 103016 99971.1 99971.1 99971.3
          99971.4 99999.2 100000 100000 100000 100008 100374 100399 100447 100520 100619 100743
          100892 101067 101264 101480 101708 101934 102142 102307 102411 102447 99961.1 99961.2
          99961.3 99961.5 99998.9 100000 100000 100000 100006 100313 100334 100376 100439 100522
          100626 100752 100896 101058 101231 101410 101584 101740 101864 101943 101970 99949.7
          99949.8 99949.9 99950.1 99998.5 100000 100000 100000 100005 100255 100273 100309 100362
          100433 100520 100624 100743 100874 101013 101153 101288 101406 101500 101560 101580
          99936.6 99936.7 99936.9 99937.2 99997.9 100000 100000 100000 100003 100200 100216 100247
          100293 100353 100426 100513 100610 100717 100828 100939 101044 101136 101207 101253
          101269 99921.6 99921.9 99922.3 99922.6 99997.3 99999.9 100000 100000 100002 100148 100163
          100191 100232 100283 100346 100419 100500 100588 100679 100768 100852 100924 100980
          101016 101028 99904.1 99904.9 99906.9 99906 99995 99998 99998.5 99998.8 99999.5 100096
          100113 100141 100179 100225 100280 100343 100413 100488 100564 100639 100709 100768
          100814 100843 100853 99883.2 99884.6 99889.2 99902.3 99912.8 99933.1 99953.7 99977.2 100007
          100036 100068 100099 100136 100179 100229 100287 100350 100417 100485 100552 100613
          100665 100705 100730 100739 99858.1 99859.7 99865.5 99875.4 99888.7 99905.8 99926.2 99949.6
          99976.2 100005 100035 100067 100103 100145 100194 100250 100311 100375 100440 100504
          100562 100612 100650 100674 100683
        </DataArray>
        <DataArray type="Float32" Name="density_liquid" NumberOfComponents="1" format="ascii">
          997.068 997.068 997.068 997.068 997.068 997.068 997.068 997.068 997.068 997.068 997.068 997.068
          997.068 997.068 997.068 997.068 997.068 997.068 997.068 997.068 997.068 997.068 997.068 997.068
          997.068 997.068 997.068 997.068 997.069 997.068 997.069 997.069 997.069 997.069 997.069 997.069
          997.069 997.069 997.069 997.069 997.067 997.067 997.06 997.06 997.057 997.057 997.058 997.058
          997.095 997.092 997.068 997.068 997.068 997.068 997.068 997.068 997.068 997.068 997.068 997.068
          997.068 997.068 997.068 997.068 997.068 997.069 997.069 997.069 997.069 997.069 997.068 997.061
          997.057 997.058 997.092 997.068 997.068 997.068 997.068 997.068 997.068 997.068 997.068 997.068
          997.068 997.068 997.068 997.068 997.068 997.068 997.069 997.069 997.069 997.069 997.069 997.068
          997.063 997.057 997.057 997.091 997.068 997.068 997.068 997.068 997.068 997.068 997.068 997.068
          997.068 997.068 997.068 997.068 997.068 997.068 997.068 997.069 997.069 997.069 997.069 997.069
          997.069 997.064 997.056 997.056 997.085 997.068 997.068 997.068 997.068 997.068 997.068 997.068
          997.068 997.068 997.068 997.068 997.068 997.068 997.068 997.068 997.068 997.069 997.069 997.069
          997.069 997.069 997.067 997.06 997.058 997.054 997.068 997.068 997.068 997.068 997.068 997.068
          997.068 997.068 997.068 997.068 997.068 997.068 997.068 997.068 997.068 997.068 997.069 997.069
          997.069 997.069 997.069 997.069 997.067 997.061 997.066 997.068 997.068 997.068 997.068 997.068
          997.068 997.068 997.068 997.068 997.068 997.068 997.068 997.068 997.068 997.068 997.068 997.068
          997.069 997.069 997.069 997.069 997.069 997.069 997.068 997.069 997.068 997.068 997.068 997.068
          997.068 997.068 997.068 997.068 997.068 997.068 997.068 997.068 997.068 997.068 997.068 997.068
          997.068 997.068 997.069 997.069 997.069 997.069 997.069 997.069 997.069 997.068 997.068 997.068
          997.068 997.068 997.068 997.068 997.068 997.068 997.068 997.068 997.068 997.068 997.068 997.068
          997.068 997.068 997.068 997.068 997.069 997.069 997.069 997.069 997.069 997.069 997.068 997.068
          997.068 997.068 997.068 997.068 997.068 997.068 997.068 997.068 997.068 997.068 997.068 997.068
          997.068 997.068 997.068 997.068 997.068 997.068 997.068 997.069 997.069 997.069 997.069 997.068
          997.068 997.068 997.068 997.068 997.068 997.068 997.068 997.068 997.068 997.068 997.068 997.068
          997.068 997.068 997.068 997.068 997.068 997.068 997.068 997.068 997.068 997.068 997.068 997.068
          997.068 997.068 997.068 997.068 997.068 997.068 997.068 997.068 997.068 997.068 997.068 997.068
          997.068 997.068 997.068 997.068 997.068 997.068 997.068 997.068 997.068 997.068 997.068 997.068
          997.068 997.068 997.068 997.068 997.068 997.068 997.068 997.068 997.068 997.068 997.068 997.068
          997.068 997.068 997.068 997.068 997.068 997.068 997.068 997.068 997.068 997.068 997.068 997.068
          997.068 997.068 997.068 997.068 997.068 997.068 997.068 997.068 997.068 997.068 997.068 997.068
          997.068 997.068 997.068 997.068 997.068 997.068 997.068 997.068 997.068 997.068 997.068 997.068
          997.068 997.068 997.068 997.068 997.068 997.068 997.068 997.068 997.068 997.068 997.068 997.068
          997.068 997.068 997.068 997.068 997.068 997.068 997.068 997.068 997.068 997.068 997.068 997.068
          997.068 997.068 997.068 997.068 997.068 997.068 997.068 997.068 997.068 997.068 997.068 997.068
          997.068 997.068 997.068 997.068 997.068 997.068 997.068 997.068 997.068 997.068 997.068 997.068
          997.068 997.068 997.068 997.068 997.068
        </DataArray>
        <DataArray type="Float32" Name="density_gas" NumberOfComponents="1" format="ascii">
          1.12615 1.12656 1.12608 1.12633 1.12676 1.1265 1.12687 1.12657 1.12606 1.12603 1.12602 1.126
          1.12602 1.126 1.12602 1.12601 1.12627 1.12624 1.13569 1.1353 1.13621 1.13584 1.13732 1.13694
          1.13902 1.13863 1.14135 1.14094 1.14436 1.14391 1.14808 1.1476 1.15255 1.15203 1.15782 1.15724
          1.16392 1.16326 1.17085 1.17008 1.17828 1.17735 1.18366 1.18267 1.19065 1.18893 1.21084 1.21067
          2.0857 2.03579 1.12604 1.1262 1.12631 1.12637 1.12602 1.126 1.126 1.126 1.12622 1.13484
          1.13537 1.13645 1.13809 1.14034 1.14323 1.14681 1.15111 1.15615 1.16196 1.16849 1.17536 1.1804
          1.18367 1.20028 2.03077 1.12603 1.12612 1.12619 1.12622 1.12601 1.126 1.126 1.126 1.1262
          1.13431 1.13482 1.13585 1.13742 1.13956 1.14232 1.14573 1.14982 1.15462 1.16012 1.16627 1.17272
          1.17771 1.1768 1.18021 2.01825 1.12602 1.12606 1.12609 1.12611 1.12601 1.126 1.126 1.126
          1.12618 1.1337 1.13419 1.13515 1.13663 1.13864 1.14122 1.1444 1.14822 1.15269 1.15781 1.16356
          1.16972 1.1749 1.17429 1.16231 1.84327 1.12599 1.126 1.12602 1.12603 1.12601 1.126 1.126
          1.126 1.12617 1.13305 1.13349 1.13439 1.13574 1.13759 1.13996 1.14288 1.14637 1.15045 1.15512
          1.1604 1.16631 1.1728 1.17912 1.21026 1.12297 1.12593 1.12594 1.12594 1.12595 1.126 1.126
          1.126 1.126 1.12615 1.13236 1.13276 1.13357 1.1348 1.13647 1.1386 1.14122 1.14434 1.14798
          1.15213 1.1568 1.16205 1.16806 1.17504 1.17387 1.17227 1.12586 1.12586 1.12586 1.12587 1.126
          1.126 1.126 1.126 1.12613 1.13164 1.132 1.13272 1.13382 1.1353 1.13718 1.13948 1.14222
          1.14538 1.14894 1.1529 1.15718 1.16165 1.16533 1.16678 1.16718 1.12577 1.12578 1.12578 1.12578
          1.126 1.126 1.126 1.126 1.12611 1.13092 1.13124 1.13187 1.13283 1.13412 1.13575 1.13774
          1.14008 1.14276 1.14574 1.14896 1.15229 1.15546 1.15799 1.15948 1.15996 1.12568 1.12568 1.12568
          1.12568 1.12599 1.126 1.126 1.126 1.12609 1.13021 1.13049 1.13104 1.13186 1.13297 1.13436
          1.13605 1.13802 1.14024 1.14267 1.14523 1.14778 1.15012 1.15198 1.15315 1.15355 1.12557 1.12557
          1.12557 1.12557 1.12599 1.126 1.126 1.126 1.12607 1.12953 1.12977 1.13024 1.13094 1.13188
          1.13306 1.13447 1.13609 1.13791 1.13987 1.14188 1.14384 1.1456 1.14699 1.14788 1.14819 1.12544
          1.12544 1.12544 1.12544 1.12599 1.126 1.126 1.126 1.12605 1.12887 1.12908 1.12948 1.13008
          1.13088 1.13186 1.13303 1.13437 1.13584 1.1374 1.13899 1.1405 1.14184 1.14289 1.14356 1.14379
          1.12529 1.12529 1.12529 1.1253 1.12598 1.126 1.126 1.126 1.12604 1.12825 1.12844 1.12879
          1.1293 1.12998 1.1308 1.13178 1.13288 1.13407 1.13533 1.13658 1.13776 1.13879 1.1396 1.14011
          1.14029 1.12512 1.12512 1.12513 1.12513 1.12597 1.126 1.126 1.126 1.12602 1.12766 1.12783
          1.12815 1.12861 1.12919 1.1299 1.13072 1.13164 1.13262 1.13364 1.13465 1.13559 1.13641 1.13704
          1.13744 1.13758 1.12492 1.12493 1.12495 1.12494 1.12595 1.12598 1.12599 1.12599 1.126 1.12708
          1.12727 1.12759 1.12802 1.12854 1.12916 1.12987 1.13066 1.1315 1.13236 1.1332 1.13398 1.13465
          1.13517 1.1355 1.13561 1.12469 1.1247 1.12476 1.1249 1.12502 1.12525 1.12548 1.12575 1.12609
          1.12641 1.12677 1.12712 1.12753 1.12802 1.12859 1.12923 1.12994 1.1307 1.13147 1.13221 1.1329
          1.13349 1.13394 1.13423 1.13432 1.1244 1.12442 1.12449 1.1246 1.12475 1.12494 1.12517 1.12544
          1.12574 1.12606 1.12639 1.12675 1.12716 1.12763 1.12819 1.12881 1.1295 1.13022 1.13096 1.13168
          1.13233 1.13289 1.13333 1.1336 1.13369
        </DataArray>
        <DataArray type="Float32" Name="saturation_liquid" NumberOfComponents="1" format="ascii">
          0 0 0 0 0 0 0 0 0 0 0 0
          0 0 0 0 0 0 0 0 0 0 0 0
          0 0 0 0 0 0 0 0 0 0 0 0
          0 0 0 0 0 0 0 0 0.00183952 0.00152723 0.389786 0.332409
          1 1 0 0 0 0 0 0 0 0 0 0
          0 0 0 0 0 0 0 0 0 0 0 0
          0.00109443 0.331137 1 0 0 0 0 0 0 0 0 0
          0 0 0 0 0 0 0 0 0 0 0 0
          0 0.000208033 0.30965 1 0 0 0 0 0 0 0 0
          0 0 0 0 0 0 0 0 0 0 0 0
          0 0 4.80675e-05 0.174809 1 0 0 0 0 0 0 0
          0 0 0 0 0 0 0 0 0 0 0 0
          0 0 0 0 0.000537929 0.0634262 0 0 0 0 0 0
          0 0 0 0 0 0 0 0 0 0 0 0
          0 0 0 0 0 0 0 0 0 0 0 0
          0 0 0 0 0 0 0 0 0 0 0 0
          0 0 0 0 0 0 0 0 0 0 0 0
          0 0 0 0 0 0 0 0 0 0 0 0
          0 0 0 0 0 0 0 0 0 0 0 0
          0 0 0 0 0 0 0 0 0 0 0 0
          0 0 0 0 0 0 0 0 0 0 0 0
          0 0 0 0 0 0 0 0 0 0 0 0
          0 0 0 0 0 0 0 0 0 0 0 0
          0 0 0 0 0 0 0 0 0 0 0 0
          0 0 0 0 0 0 0 0 0 0 0 0
          0 0 0 0 0 0 0 0 0 0 0 0
          0 0 0 0 0 0 0 0 0 0 0 0
          0 0 0 0 0 0 0 0 0 0 0 0
          0 0 0 0 0 0 0 0 0 0 0 0
          0 0 0 0 0 0 0 0 0 0 0 0
          0 0 0 0 0 0 0 0 0 0 0 0
          0 0 0 0 0 0 0 0 0 0 0 0
          0 0 0 0 0 0 0 0 0 0 0 0
          0 0 0 0 0 0 0 0 0 0 0 0
          0 0 0 0 0 0 0 0 0 0 0 0
          0 0 0 0 0
        </DataArray>
        <DataArray type="Float32" Name="saturation_gas" NumberOfComponents="1" format="ascii">
          1 1 1 1 1 1 1 1 1 1 1 1
          1 1 1 1 1 1 1 1 1 1 1 1
          1 1 1 1 1 1 1 1 1 1 1 1
          1 1 1 1 1 1 1 1 0.99816 0.998473 0.610214 0.667591
          0 0 1 1 1 1 1 1 1 1 1 1
          1 1 1 1 1 1 1 1 1 1 1 1
          0.998906 0.668863 0 1 1 1 1 1 1 1 1 1
          1 1 1 1 1 1 1 1 1 1 1 1
          1 0.999792 0.69035 0 1 1 1 1 1 1 1 1
          1 1 1 1 1 1 1 1 1 1 1 1
          1 1 0.999952 0.825191 0 1 1 1 1 1 1 1
          1 1 1 1 1 1 1 1 1 1 1 1
          1 1 1 1 0.999462 0.936574 1 1 1 1 1 1
          1 1 1 1 1 1 1 1 1 1 1 1
          1 1 1 1 1 1 1 1 1 1 1 1
          1 1 1 1 1 1 1 1 1 1 1 1
          1 1 1 1 1 1 1 1 1 1 1 1
          1 1 1 1 1 1 1 1 1 1 1 1
          1 1 1 1 1 1 1 1 1 1 1 1
          1 1 1 1 1 1 1 1 1 1 1 1
          1 1 1 1 1 1 1 1 1 1 1 1
          1 1 1 1 1 1 1 1 1 1 1 1
          1 1 1 1 1 1 1 1 1 1 1 1
          1 1 1 1 1 1 1 1 1 1 1 1
          1 1 1 1 1 1 1 1 1 1 1 1
          1 1 1 1 1 1 1 1 1 1 1 1
          1 1 1 1 1 1 1 1 1 1 1 1
          1 1 1 1 1 1 1 1 1 1 1 1
          1 1 1 1 1 1 1 1 1 1 1 1
          1 1 1 1 1 1 1 1 1 1 1 1
          1 1 1 1 1 1 1 1 1 1 1 1
          1 1 1 1 1 1 1 1 1 1 1 1
          1 1 1 1 1 1 1 1 1 1 1 1
          1 1 1 1 1 1 1 1 1 1 1 1
          1 1 1 1 1 1 1 1 1 1 1 1
          1 1 1 1 1
        </DataArray>
        <DataArray type="Float32" Name="relativePerm_liquid" NumberOfComponents="1" format="ascii">
          0 0 0 0 0 0 0 0 0 0 0 0
          0 0 0 0 0 0 0 0 0 0 0 0
          0 0 0 0 0 0 0 0 0 0 0 0
          0 0 0 0 0 0 0 0 0.00183952 0.00152723 0.389786 0.332409
          1 1 0 0 0 0 0 0 0 0 0 0
          0 0 0 0 0 0 0 0 0 0 0 0
          0.00109443 0.331137 1 0 0 0 0 0 0 0 0 0
          0 0 0 0 0 0 0 0 0 0 0 0
          0 0.000208033 0.30965 1 0 0 0 0 0 0 0 0
          0 0 0 0 0 0 0 0 0 0 0 0
          0 0 4.80675e-05 0.174809 1 0 0 0 0 0 0 0
          0 0 0 0 0 0 0 0 0 0 0 0
          0 0 0 0 0.000537929 0.0634262 0 0 0 0 0 0
          0 0 0 0 0 0 0 0 0 0 0 0
          0 0 0 0 0 0 0 0 0 0 0 0
          0 0 0 0 0 0 0 0 0 0 0 0
          0 0 0 0 0 0 0 0 0 0 0 0
          0 0 0 0 0 0 0 0 0 0 0 0
          0 0 0 0 0 0 0 0 0 0 0 0
          0 0 0 0 0 0 0 0 0 0 0 0
          0 0 0 0 0 0 0 0 0 0 0 0
          0 0 0 0 0 0 0 0 0 0 0 0
          0 0 0 0 0 0 0 0 0 0 0 0
          0 0 0 0 0 0 0 0 0 0 0 0
          0 0 0 0 0 0 0 0 0 0 0 0
          0 0 0 0 0 0 0 0 0 0 0 0
          0 0 0 0 0 0 0 0 0 0 0 0
          0 0 0 0 0 0 0 0 0 0 0 0
          0 0 0 0 0 0 0 0 0 0 0 0
          0 0 0 0 0 0 0 0 0 0 0 0
          0 0 0 0 0 0 0 0 0 0 0 0
          0 0 0 0 0 0 0 0 0 0 0 0
          0 0 0 0 0 0 0 0 0 0 0 0
          0 0 0 0 0 0 0 0 0 0 0 0
          0 0 0 0 0 0 0 0 0 0 0 0
          0 0 0 0 0
        </DataArray>
        <DataArray type="Float32" Name="relativePerm_gas" NumberOfComponents="1" format="ascii">
          1 1 1 1 1 1 1 1 1 1 1 1
          1 1 1 1 1 1 1 1 1 1 1 1
          1 1 1 1 1 1 1 1 1 1 1 1
          1 1 1 1 1 1 1 1 0.99816 0.998473 0.610214 0.667591
          0 0 1 1 1 1 1 1 1 1 1 1
          1 1 1 1 1 1 1 1 1 1 1 1
          0.998906 0.668863 0 1 1 1 1 1 1 1 1 1
          1 1 1 1 1 1 1 1 1 1 1 1
          1 0.999792 0.69035 0 1 1 1 1 1 1 1 1
          1 1 1 1 1 1 1 1 1 1 1 1
          1 1 0.999952 0.825191 0 1 1 1 1 1 1 1
          1 1 1 1 1 1 1 1 1 1 1 1
          1 1 1 1 0.999462 0.936574 1 1 1 1 1 1
          1 1 1 1 1 1 1 1 1 1 1 1
          1 1 1 1 1 1 1 1 1 1 1 1
          1 1 1 1 1 1 1 1 1 1 1 1
          1 1 1 1 1 1 1 1 1 1 1 1
          1 1 1 1 1 1 1 1 1 1 1 1
          1 1 1 1 1 1 1 1 1 1 1 1
          1 1 1 1 1 1 1 1 1 1 1 1
          1 1 1 1 1 1 1 1 1 1 1 1
          1 1 1 1 1 1 1 1 1 1 1 1
          1 1 1 1 1 1 1 1 1 1 1 1
          1 1 1 1 1 1 1 1 1 1 1 1
          1 1 1 1 1 1 1 1 1 1 1 1
          1 1 1 1 1 1 1 1 1 1 1 1
          1 1 1 1 1 1 1 1 1 1 1 1
          1 1 1 1 1 1 1 1 1 1 1 1
          1 1 1 1 1 1 1 1 1 1 1 1
          1 1 1 1 1 1 1 1 1 1 1 1
          1 1 1 1 1 1 1 1 1 1 1 1
          1 1 1 1 1 1 1 1 1 1 1 1
          1 1 1 1 1 1 1 1 1 1 1 1
          1 1 1 1 1 1 1 1 1 1 1 1
          1 1 1 1 1 1 1 1 1 1 1 1
          1 1 1 1 1
        </DataArray>
        <DataArray type="Float32" Name="porosity" NumberOfComponents="1" format="ascii">
          0.3 0.3 0.3 0.3 0.3 0.3 0.3 0.3 0.3 0.3 0.3 0.3
          0.3 0.3 0.3 0.3 0.3 0.3 0.3 0.3 0.3 0.3 0.3 0.3
          0.3 0.3 0.3 0.3 0.3 0.3 0.3 0.3 0.3 0.3 0.3 0.3
          0.3 0.3 0.3 0.3 0.3 0.3 0.3 0.3 0.3 0.3 0.3 0.3
          0.3 0.3 0.3 0.3 0.3 0.3 0.3 0.3 0.3 0.3 0.3 0.3
          0.3 0.3 0.3 0.3 0.3 0.3 0.3 0.3 0.3 0.3 0.3 0.3
          0.3 0.3 0.3 0.3 0.3 0.3 0.3 0.3 0.3 0.3 0.3 0.3
          0.3 0.3 0.3 0.3 0.3 0.3 0.3 0.3 0.3 0.3 0.3 0.3
          0.3 0.3 0.3 0.3 0.3 0.3 0.3 0.3 0.3 0.3 0.3 0.3
          0.3 0.3 0.3 0.3 0.3 0.3 0.3 0.3 0.3 0.3 0.3 0.3
          0.3 0.3 0.3 0.3 0.3 0.3 0.3 0.3 0.3 0.3 0.3 0.3
          0.3 0.3 0.3 0.3 0.3 0.3 0.3 0.3 0.3 0.3 0.3 0.3
          0.3 0.3 0.3 0.3 0.3 0.3 0.3 0.3 0.3 0.3 0.3 0.3
          0.3 0.3 0.3 0.3 0.3 0.3 0.3 0.3 0.3 0.3 0.3 0.3
          0.3 0.3 0.3 0.3 0.3 0.3 0.3 0.3 0.3 0.3 0.3 0.3
          0.3 0.3 0.3 0.3 0.3 0.3 0.3 0.3 0.3 0.3 0.3 0.3
          0.3 0.3 0.3 0.3 0.3 0.3 0.3 0.3 0.3 0.3 0.3 0.3
          0.3 0.3 0.3 0.3 0.3 0.3 0.3 0.3 0.3 0.3 0.3 0.3
          0.3 0.3 0.3 0.3 0.3 0.3 0.3 0.3 0.3 0.3 0.3 0.3
          0.3 0.3 0.3 0.3 0.3 0.3 0.3 0.3 0.3 0.3 0.3 0.3
          0.3 0.3 0.3 0.3 0.3 0.3 0.3 0.3 0.3 0.3 0.3 0.3
          0.3 0.3 0.3 0.3 0.3 0.3 0.3 0.3 0.3 0.3 0.3 0.3
          0.3 0.3 0.3 0.3 0.3 0.3 0.3 0.3 0.3 0.3 0.3 0.3
          0.3 0.3 0.3 0.3 0.3 0.3 0.3 0.3 0.3 0.3 0.3 0.3
          0.3 0.3 0.3 0.3 0.3 0.3 0.3 0.3 0.3 0.3 0.3 0.3
          0.3 0.3 0.3 0.3 0.3 0.3 0.3 0.3 0.3 0.3 0.3 0.3
          0.3 0.3 0.3 0.3 0.3 0.3 0.3 0.3 0.3 0.3 0.3 0.3
          0.3 0.3 0.3 0.3 0.3 0.3 0.3 0.3 0.3 0.3 0.3 0.3
          0.3 0.3 0.3 0.3 0.3 0.3 0.3 0.3 0.3 0.3 0.3 0.3
          0.3 0.3 0.3 0.3 0.3 0.3 0.3 0.3 0.3 0.3 0.3 0.3
          0.3 0.3 0.3 0.3 0.3 0.3 0.3 0.3 0.3 0.3 0.3 0.3
          0.3 0.3 0.3 0.3 0.3 0.3 0.3 0.3 0.3 0.3 0.3 0.3
          0.3 0.3 0.3 0.3 0.3 0.3 0.3 0.3 0.3 0.3 0.3 0.3
          0.3 0.3 0.3 0.3 0.3 0.3 0.3 0.3 0.3 0.3 0.3 0.3
          0.3 0.3 0.3 0.3 0.3 0.3 0.3 0.3 0.3 0.3 0.3 0.3
          0.3 0.3 0.3 0.3 0.3
        </DataArray>
        <DataArray type="Float32" Name="temperature" NumberOfComponents="1" format="ascii">
          298.15 298.15 298.15 298.15 298.15 298.15 298.15 298.15 298.15 298.15 298.15 298.15
          298.15 298.15 298.15 298.15 298.15 298.15 298.15 298.15 298.15 298.15 298.15 298.15
          298.15 298.15 298.15 298.15 298.15 298.15 298.15 298.15 298.15 298.15 298.15 298.15
          298.15 298.15 298.15 298.15 298.15 298.15 298.15 298.15 298.15 298.15 298.15 298.15
          298.15 298.15 298.15 298.15 298.15 298.15 298.15 298.15 298.15 298.15 298.15 298.15
          298.15 298.15 298.15 298.15 298.15 298.15 298.15 298.15 298.15 298.15 298.15 298.15
          298.15 298.15 298.15 298.15 298.15 298.15 298.15 298.15 298.15 298.15 298.15 298.15
          298.15 298.15 298.15 298.15 298.15 298.15 298.15 298.15 298.15 298.15 298.15 298.15
          298.15 298.15 298.15 298.15 298.15 298.15 298.15 298.15 298.15 298.15 298.15 298.15
          298.15 298.15 298.15 298.15 298.15 298.15 298.15 298.15 298.15 298.15 298.15 298.15
          298.15 298.15 298.15 298.15 298.15 298.15 298.15 298.15 298.15 298.15 298.15 298.15
          298.15 298.15 298.15 298.15 298.15 298.15 298.15 298.15 298.15 298.15 298.15 298.15
          298.15 298.15 298.15 298.15 298.15 298.15 298.15 298.15 298.15 298.15 298.15 298.15
          298.15 298.15 298.15 298.15 298.15 298.15 298.15 298.15 298.15 298.15 298.15 298.15
          298.15 298.15 298.15 298.15 298.15 298.15 298.15 298.15 298.15 298.15 298.15 298.15
          298.15 298.15 298.15 298.15 298.15 298.15 298.15 298.15 298.15 298.15 298.15 298.15
          298.15 298.15 298.15 298.15 298.15 298.15 298.15 298.15 298.15 298.15 298.15 298.15
          298.15 298.15 298.15 298.15 298.15 298.15 298.15 298.15 298.15 298.15 298.15 298.15
          298.15 298.15 298.15 298.15 298.15 298.15 298.15 298.15 298.15 298.15 298.15 298.15
          298.15 298.15 298.15 298.15 298.15 298.15 298.15 298.15 298.15 298.15 298.15 298.15
          298.15 298.15 298.15 298.15 298.15 298.15 298.15 298.15 298.15 298.15 298.15 298.15
          298.15 298.15 298.15 298.15 298.15 298.15 298.15 298.15 298.15 298.15 298.15 298.15
          298.15 298.15 298.15 298.15 298.15 298.15 298.15 298.15 298.15 298.15 298.15 298.15
          298.15 298.15 298.15 298.15 298.15 298.15 298.15 298.15 298.15 298.15 298.15 298.15
          298.15 298.15 298.15 298.15 298.15 298.15 298.15 298.15 298.15 298.15 298.15 298.15
          298.15 298.15 298.15 298.15 298.15 298.15 298.15 298.15 298.15 298.15 298.15 298.15
          298.15 298.15 298.15 298.15 298.15 298.15 298.15 298.15 298.15 298.15 298.15 298.15
          298.15 298.15 298.15 298.15 298.15 298.15 298.15 298.15 298.15 298.15 298.15 298.15
          298.15 298.15 298.15 298.15 298.15 298.15 298.15 298.15 298.15 298.15 298.15 298.15
          298.15 298.15 298.15 298.15 298.15 298.15 298.15 298.15 298.15 298.15 298.15 298.15
          298.15 298.15 298.15 298.15 298.15 298.15 298.15 298.15 298.15 298.15 298.15 298.15
          298.15 298.15 298.15 298.15 298.15 298.15 298.15 298.15 298.15 298.15 298.15 298.15
          298.15 298.15 298.15 298.15 298.15 298.15 298.15 298.15 298.15 298.15 298.15 298.15
          298.15 298.15 298.15 298.15 298.15 298.15 298.15 298.15 298.15 298.15 298.15 298.15
          298.15 298.15 298.15 298.15 298.15 298.15 298.15 298.15 298.15 298.15 298.15 298.15
          298.15 298.15 298.15 298.15 298.15
        </DataArray>
        <DataArray type="Float32" Name="moleFrac_liquid^H2O" NumberOfComponents="1" format="ascii">
          0.315523 0.31564 0.315503 0.315574 0.315695 0.315621 0.315726 0.315643 0.315499 0.315491 0.315488 0.315483
          0.315488 0.315483 0.315488 0.315483 0.315558 0.31555 0.318196 0.318088 0.318343 0.31824 0.318653 0.318548
          0.31913 0.31902 0.319783 0.319667 0.320625 0.320501 0.321667 0.321533 0.322922 0.322775 0.324424 0.324258
          0.326547 0.326313 0.333616 0.33284 0.382267 0.377274 0.69817 0.666186 0.999988 0.999988 0.999988 0.999988
          0.999985 0.999986 0.315494 0.315538 0.315569 0.315584 0.315488 0.315483 0.315483 0.315483 0.315544 0.317959
          0.318108 0.318409 0.318869 0.319499 0.320309 0.321311 0.322517 0.323947 0.325846 0.331173 0.365907 0.593677
          0.999988 0.999988 0.999986 0.31549 0.315515 0.315534 0.315544 0.315486 0.315483 0.315483 0.315483 0.315539
          0.317809 0.317952 0.31824 0.31868 0.319281 0.320054 0.321009 0.322156 0.323509 0.32522 0.329276 0.353703
          0.503085 0.999988 0.999988 0.999987 0.315487 0.315498 0.315508 0.315514 0.315484 0.315483 0.315483 0.315483
          0.315534 0.31764 0.317775 0.318046 0.318459 0.319022 0.319745 0.320638 0.321708 0.322963 0.324478 0.327391
          0.344666 0.470934 0.999988 0.999988 0.999985 0.31548 0.315482 0.315487 0.315489 0.315483 0.315483 0.315483
          0.315483 0.315528 0.317457 0.317582 0.317831 0.318212 0.31873 0.319394 0.320211 0.321189 0.322332 0.323654
          0.325365 0.330438 0.36975 0.655351 0.999988 0.999989 0.315463 0.315464 0.315466 0.315467 0.315483 0.315483
          0.315483 0.315483 0.315523 0.317263 0.317376 0.317602 0.317947 0.318414 0.319012 0.319746 0.320621 0.321639
          0.322803 0.324137 0.326033 0.333166 0.382024 0.560641 0.398042 0.315443 0.315443 0.315444 0.315444 0.315482
          0.315483 0.315483 0.315483 0.315517 0.317063 0.317164 0.317366 0.317672 0.318086 0.318614 0.31926 0.320025
          0.32091 0.32191 0.323019 0.324254 0.325982 0.331664 0.351292 0.334184 0.315419 0.315419 0.315419 0.31542
          0.315481 0.315483 0.315483 0.315483 0.315512 0.316861 0.316951 0.317128 0.317395 0.317756 0.318214 0.318771
          0.319427 0.320177 0.321012 0.321914 0.322849 0.323765 0.324775 0.326566 0.325638 0.315391 0.315392 0.315392
          0.315392 0.31548 0.315483 0.315483 0.315483 0.315507 0.316663 0.31674 0.316894 0.317124 0.317434 0.317825
          0.318298 0.318848 0.319471 0.320152 0.32087 0.321585 0.322241 0.322776 0.323176 0.323242 0.31536 0.31536
          0.315361 0.315361 0.315479 0.315483 0.315483 0.315483 0.315502 0.316471 0.316538 0.316669 0.316866 0.317129
          0.317459 0.317854 0.31831 0.318819 0.319367 0.319931 0.320481 0.320973 0.321364 0.321615 0.321699 0.315324
          0.315324 0.315325 0.315325 0.315478 0.315483 0.315483 0.315483 0.315497 0.316287 0.316345 0.316458 0.316626
          0.316848 0.317124 0.317452 0.317827 0.318239 0.318677 0.319121 0.319545 0.31992 0.320214 0.320403 0.320467
          0.315283 0.315283 0.315284 0.315285 0.315476 0.315483 0.315483 0.315483 0.315492 0.316113 0.316164 0.316263
          0.316407 0.316596 0.316828 0.3171 0.317408 0.317744 0.318095 0.318446 0.318777 0.319066 0.319292 0.319435
          0.319485 0.315235 0.315236 0.315238 0.315238 0.315474 0.315482 0.315483 0.315483 0.315488 0.315948 0.315996
          0.316085 0.316213 0.316377 0.316574 0.316804 0.317061 0.317337 0.317623 0.317906 0.31817 0.318399 0.318576
          0.318688 0.318727 0.31518 0.315182 0.315189 0.315186 0.315467 0.315476 0.315478 0.315479 0.315481 0.315785
          0.315838 0.315928 0.316047 0.316193 0.316367 0.316566 0.316787 0.317022 0.317263 0.3175 0.317718 0.317907
          0.318051 0.318143 0.318174 0.315114 0.315119 0.315133 0.315174 0.315208 0.315272 0.315336 0.315411 0.315506