<?xml version="1.0"?>
<VTKFile type="UnstructuredGrid" version="0.1" byte_order="LittleEndian">
  <UnstructuredGrid>
    <Piece NumberOfCells="384" NumberOfPoints="425">
      <PointData Scalars="pressure_liquid">
        <DataArray type="Float32" Name="pressure_liquid" NumberOfComponents="1" format="ascii">
          100012 100027 100006 100017 100035 100024 100039 100027 100005 100003 100002 100000
          100002 100000 100004 100002 100091 100087 101507 101487 101550 101530 101635 101613
          101761 101738 101932 101908 102151 102124 102420 102390 102745 102711 103133 103093
          103593 103545 104136 104079 104779 104709 105537 105454 106442 106347 109410 108782
          172895 169942 100004 100011 100016 100018 100002 100000 100000 100002 100085 101453
          101495 101576 101698 101863 102072 102328 102637 103003 103432 103936 104528 105222
          106029 108164 169072 100002 100007 100010 100012 100001 100000 100000 100002 100081
          101408 101448 101526 101643 101799 101997 102239 102528 102868 103264 103721 104248
          104859 105533 107168 166304 100002 100004 100006 100007 100001 100000 100000 100002
          100077 101353 101391 101464 101573 101719 101903 102127 102392 102699 103051 103449
          103894 104384 104901 105694 147025 100002 100002 100003 100004 100000 100000 100000
          100002 100072 101289 101324 101392 101493 101627 101795 101998 102235 102507 102812
          103147 103505 103874 104219 104468 104493 100000 100000 100001 100001 100000 100000
          100000 100002 100067 101218 101250 101312 101404 101526 101678 101858 102068 102303
          102562 102838 103123 103398 103636 103790 103805 99998.3 99998.4 99998.6 99998.7 99999.7
          100000 100000 100001 100062 101143 101172 101228 101311 101421 101555 101715 101897
          102098 102316 102542 102766 102975 103147 103257 103287 99996.7 99996.8 99996.9 99997
          99999.4 100000 100000 100001 100057 101065 101092 101143 101217 101314 101433 101572
          101729 101901 102082 102266 102445 102606 102734 102817 102844 99995.4 99995.5 99995.6
          99995.8 99999.1 100000 100000 100001 100052 100987 101011 101057 101124 101210 101314
          101436 101571 101716 101867 102018 102161 102287 102387 102450 102472 99994.7 99994.8
          99995.1 99995.3 99998.8 100000 100000 100001 100047 100910 100932 100974 101034 101111
          101203 101309 101425 101549 101675 101800 101916 102017 102095 102145 102162 99994.5
          99994.8 99995.4 99996 99998.6 100000 100000 100001 100042 100836 100856 100895 100950
          101020 101102 101195 101296 101402 101509 101613 101708 101790 101854 101893 101907
          99994.8 99995.4 99997 99998.4 99998.3 99999.9 100000 100001 100037 100763 100784 100822
          100874 100939 101013 101096 101185 101277 101369 101458 101538 101606 101658 101691
          101702 99995.2 99996.5 100000 100004 99998.2 100000 100000 100001 100033 100691 100716
          100756 100808 100869 100939 101014 101094 101176 101257 101334 101403 101462 101506
          101534 101543 99994.6 99997.3 100005 100015 100001 100006 100009 100014 100044 100616
          100651 100698 100753 100813 100880 100951 101024 101099 101173 101242 101304 101356
          101395 101419 101428 99990.9 99995.2 100009 100038 100099 100164 100236 100317 100411
          100524 100594 100653 100712 100773 100838 100906 100977 101047 101116 101181 101239
          101287 101323 101346 101353 99980.8 99985.7 100002 100034 100087 100151 100222 100303
          100394 100491 100565 100629 100689 100750 100815 100882 100951 101021 101088 101152
          101208 101255 101290 101312 101319
        </DataArray>
        <DataArray type="Float32" Name="pressure_gas" NumberOfComponents="1" format="ascii">
          100012 100027 100006 100017 100035 100024 100039 100027 100005 100003 100002 100000
          100002 100000 100004 100002 100091 100087 101507 101487 101550 101530 101635 101613
          101761 101738 101932 101908 102151 102124 102420 102390 102745 102711 103133 103093
          103593 103545 104136 104079 104779 104709 105537 105454 106442 106347 109410 108782
          172895 169942 100004 100011 100016 100018 100002 100000 100000 100002 100085 101453
          101495 101576 101698 101863 102072 102328 102637 103003 103432 103936 104528 105222
          106029 108164 169072 100002 100007 100010 100012 100001 100000 100000 100002 100081
          101408 101448 101526 101643 101799 101997 102239 102528 102868 103264 103721 104248
          104859 105533 107168 166304 100002 100004 100006 100007 100001 100000 100000 100002
          100077 101353 101391 101464 101573 101719 101903 102127 102392 102699 103051 103449
          103894 104384 104901 105694 147025 100002 100002 100003 100004 100000 100000 100000
          100002 100072 101289 101324 101392 101493 101627 101795 101998 102235 102507 102812
          103147 103505 103874 104219 104468 104493 100000 100000 100001 100001 100000 100000
          100000 100002 100067 101218 101250 101312 101404 101526 101678 101858 102068 102303
          102562 102838 103123 103398 103636 103790 103805 99998.3 99998.4 99998.6 99998.7 99999.7
          100000 100000 100001 100062 101143 101172 101228 101311 101421 101555 101715 101897
          102098 102316 102542 102766 102975 103147 103257 103287 99996.7 99996.8 99996.9 99997
          99999.4 100000 100000 100001 100057 101065 101092 101143 101217 101314 101433 101572
          101729 101901 102082 102266 102445 102606 102734 102817 102844 99995.4 99995.5 99995.6
          99995.8 99999.1 100000 100000 100001 100052 100987 101011 101057 101124 101210 101314
          101436 101571 101716 101867 102018 102161 102287 102387 102450 102472 99994.7 99994.8
          99995.1 99995.3 99998.8 100000 100000 100001 100047 100910 100932 100974 101034 101111
          101203 101309 101425 101549 101675 101800 101916 102017 102095 102145 102162 99994.5
          99994.8 99995.4 99996 99998.6 100000 100000 100001 100042 100836 100856 100895 100950
          101020 101102 101195 101296 101402 101509 101613 101708 101790 101854 101893 101907
          99994.8 99995.4 99997 99998.4 99998.3 99999.9 100000 100001 100037 100763 100784 100822
          100874 100939 101013 101096 101185 101277 101369 101458 101538 101606 101658 101691
          101702 99995.2 99996.5 100000 100004 99998.2 100000 100000 100001 100033 100691 100716
          100756 100808 100869 100939 101014 101094 101176 101257 101334 101403 101462 101506
          101534 101543 99994.6 99997.3 100005 100015 100001 100006 100009 100014 100044 100616
          100651 100698 100753 100813 100880 100951 101024 101099 101173 101242 101304 101356
          101395 101419 101428 99990.9 99995.2 100009 100038 100099 100164 100236 100317 100411
          100524 100594 100653 100712 100773 100838 100906 100977 101047 101116 101181 101239
          101287 101323 101346 101353 99980.8 99985.7 100002 100034 100087 100151 100222 100303
          100394 100491 100565 100629 100689 100750 100815 100882 100951 101021 101088 101152
          101208 101255 101290 101312 101319
        </DataArray>
        <DataArray type="Float32" Name="density_liquid" NumberOfComponents="1" format="ascii">
          997.068 997.068 997.068 997.068 997.068 997.068 997.068 997.068 997.068 997.068 997.068 997.068
          997.068 997.068 997.068 997.068 997.068 997.068 997.068 997.068 997.068 997.068 997.069 997.069
          997.069 997.069 997.069 997.069 997.069 997.069 997.069 997.069 997.069 997.069 997.069 997.069
          997.069 997.069 997.068 997.068 997.063 997.063 997.057 997.057 997.057 997.057 997.059 997.058
          997.087 997.085 997.068 997.068 997.068 997.068 997.068 997.068 997.068 997.068 997.068 997.068
          997.068 997.068 997.069 997.069 997.069 997.069 997.069 997.069 997.069 997.068 997.064 997.057
          997.057 997.058 997.084 997.068 997.068 997.068 997.068 997.068 997.068 997.068 997.068 997.068
          997.068 997.068 997.068 997.069 997.069 997.069 997.069 997.069 997.069 997.069 997.069 997.065
          997.056 997.057 997.058 997.082 997.068 997.068 997.068 997.068 997.068 997.068 997.068 997.068
          997.068 997.068 997.068 997.068 997.068 997.069 997.069 997.069 997.069 997.069 997.069 997.069
          997.067 997.06 997.056 997.057 997.076 997.068 997.068 997.068 997.068 997.068 997.068 997.068
          997.068 997.068 997.068 997.068 997.068 997.068 997.069 997.069 997.069 997.069 997.069 997.069
          997.069 997.069 997.066 997.061 997.056 997.056 997.068 997.068 997.068 997.068 997.068 997.068
          997.068 997.068 997.068 997.068 997.068 997.068 997.068 997.068 997.069 997.069 997.069 997.069
          997.069 997.069 997.069 997.069 997.067 997.063 997.063 997.068 997.068 997.068 997.068 997.068
          997.068 997.068 997.068 997.068 997.068 997.068 997.068 997.068 997.068 997.068 997.069 997.069
          997.069 997.069 997.069 997.069 997.069 997.069 997.068 997.068 997.068 997.068 997.068 997.068
          997.068 997.068 997.068 997.068 997.068 997.068 997.068 997.068 997.068 997.068 997.068 997.068
          997.069 997.069 997.069 997.069 997.069 997.069 997.069 997.069 997.069 997.068 997.068 997.068
          997.068 997.068 997.068 997.068 997.068 997.068 997.068 997.068 997.068 997.068 997.068 997.068
          997.068 997.068 997.069 997.069 997.069 997.069 997.069 997.069 997.069 997.069 997.068 997.068
          997.068 997.068 997.068 997.068 997.068 997.068 997.068 997.068 997.068 997.068 997.068 997.068
          997.068 997.068 997.068 997.068 997.069 997.069 997.069 997.069 997.069 997.069 997.069 997.068
          997.068 997.068 997.068 997.068 997.068 997.068 997.068 997.068 997.068 997.068 997.068 997.068
          997.068 997.068 997.068 997.068 997.068 997.068 997.069 997.069 997.069 997.069 997.069 997.069
          997.068 997.068 997.068 997.068 997.068 997.068 997.068 997.068 997.068 997.068 997.068 997.068
          997.068 997.068 997.068 997.068 997.068 997.068 997.068 997.068 997.068 997.069 997.069 997.069
          997.069 997.068 997.068 997.068 997.068 997.068 997.068 997.068 997.068 997.068 997.068 997.068
          997.068 997.068 997.068 997.068 997.068 997.068 997.068 997.068 997.068 997.068 997.068 997.068
          997.068 997.068 997.068 997.068 997.068 997.068 997.068 997.068 997.068 997.068 997.068 997.068
          997.068 997.068 997.068 997.068 997.068 997.068 997.068 997.068 997.068 997.068 997.068 997.068
          997.068 997.068 997.068 997.068 997.068 997.068 997.068 997.068 997.068 997.068 997.068 997.068
          997.068 997.068 997.068 997.068 997.068 997.068 997.068 997.068 997.068 997.068 997.068 997.068
          997.068 997.068 997.068 997.068 997.068 997.068 997.068 997.068 997.068 997.068 997.068 997.068
          997.068 997.068 997.068 997.068 997.068 997.068 997.068 997.068 997.068 997.068 997.068 997.068
          997.068 997.068 997.068 997.068 997.068
        </DataArray>
        <DataArray type="Float32" Name="density_gas" NumberOfComponents="1" format="ascii">
          1.12614 1.12631 1.12607 1.12619 1.1264 1.12627 1.12644 1.1263 1.12606 1.12603 1.12602 1.126
          1.12602 1.126 1.12604 1.12603 1.12702 1.12699 1.14297 1.14274 1.14346 1.14323 1.14441 1.14417
          1.14584 1.14558 1.14776 1.14749 1.15022 1.14992 1.15325 1.15291 1.15691 1.15652 1.16128 1.16083
          1.16642 1.16588 1.17224 1.17162 1.17772 1.17707 1.17987 1.17893 1.1901 1.18902 1.22363 1.21655
          1.93147 1.8981 1.12605 1.12612 1.12618 1.12621 1.12602 1.126 1.126 1.12603 1.12695 1.14237
          1.14284 1.14375 1.14513 1.14698 1.14933 1.15222 1.1557 1.15981 1.16462 1.17007 1.17525 1.17631
          1.18543 1.20955 1.88723 1.12603 1.12608 1.12612 1.12613 1.12602 1.126 1.126 1.12602 1.12692
          1.14186 1.14231 1.14319 1.1445 1.14626 1.14849 1.15122 1.15447 1.1583 1.16273 1.16772 1.17247
          1.1722 1.17983 1.1983 1.85267 1.12603 1.12605 1.12607 1.12608 1.12601 1.126 1.126 1.12602
          1.12687 1.14124 1.14166 1.14249 1.14372 1.14536 1.14744 1.14996 1.15294 1.1564 1.16035 1.16477
          1.16925 1.17148 1.17269 1.18165 1.64534 1.12602 1.12603 1.12604 1.12604 1.12601 1.126 1.126
          1.12602 1.12682 1.14052 1.14091 1.14167 1.14281 1.14432 1.14622 1.1485 1.15117 1.15423 1.15766
          1.16142 1.16535 1.16882 1.17038 1.16779 1.16807 1.126 1.12601 1.12601 1.12601 1.126 1.126
          1.126 1.12602 1.12676 1.13972 1.14008 1.14078 1.14182 1.14319 1.14489 1.14693 1.14928 1.15194
          1.15485 1.15796 1.16115 1.16414 1.16632 1.16674 1.16674 1.12598 1.12598 1.12599 1.12599 1.126
          1.126 1.126 1.12602 1.1267 1.13887 1.1392 1.13984 1.14077 1.142 1.14352 1.14531 1.14736
          1.14963 1.15208 1.15462 1.15715 1.15949 1.16135 1.1624 1.16268 1.12597 1.12597 1.12597 1.12597
          1.126 1.126 1.126 1.12602 1.12664 1.138 1.1383 1.13887 1.1397 1.1408 1.14214 1.1437
          1.14547 1.1474 1.14944 1.15152 1.15353 1.15534 1.15679 1.15769 1.15799 1.12595 1.12595 1.12595
          1.12596 1.12599 1.126 1.126 1.12602 1.12659 1.13712 1.13739 1.13791 1.13865 1.13963 1.1408
          1.14217 1.14369 1.14532 1.14703 1.14873 1.15034 1.15176 1.15288 1.15359 1.15383 1.12594 1.12594
          1.12595 1.12595 1.12599 1.126 1.126 1.12601 1.12653 1.13626 1.1365 1.13697 1.13765 1.13851
          1.13955 1.14074 1.14205 1.14344 1.14487 1.14627 1.14758 1.14871 1.14959 1.15015 1.15034 1.12594
          1.12594 1.12595 1.12596 1.12599 1.126 1.126 1.12601 1.12647 1.13541 1.13565 1.13608 1.1367
          1.13749 1.13841 1.13946 1.14059 1.14179 1.14299 1.14416 1.14524 1.14616 1.14687 1.14732 1.14748
          1.12594 1.12595 1.12597 1.12598 1.12598 1.126 1.126 1.12601 1.12642 1.13459 1.13483 1.13526
          1.13585 1.13657 1.13741 1.13835 1.13935 1.14038 1.14142 1.14242 1.14332 1.14409 1.14468 1.14504
          1.14517 1.12595 1.12596 1.126 1.12604 1.12598 1.126 1.126 1.12601 1.12637 1.13378 1.13406
          1.13451 1.1351 1.13579 1.13657 1.13742 1.13832 1.13925 1.14016 1.14102 1.1418 1.14246 1.14296
          1.14328 1.14338 1.12594 1.12597 1.12606 1.12617 1.12601 1.12607 1.12611 1.12616 1.1265 1.13293
          1.13333 1.13387 1.13448 1.13516 1.13591 1.13671 1.13754 1.13838 1.13921 1.13999 1.14068 1.14127
          1.14171 1.14199 1.14208 1.1259 1.12595 1.12611 1.12643 1.12712 1.12785 1.12866 1.12957 1.13063
          1.1319 1.13269 1.13336 1.13402 1.13471 1.13544 1.13621 1.137 1.1378 1.13857 1.1393 1.13995
          1.14049 1.1409 1.14116 1.14124 1.12579 1.12584 1.12602 1.12638 1.12699 1.1277 1.1285 1.12941
          1.13044 1.13153 1.13237 1.13308 1.13376 1.13445 1.13518 1.13594 1.13672 1.1375 1.13826 1.13897
          1.1396 1.14013 1.14053 1.14078 1.14086
        </DataArray>
        <DataArray type="Float32" Name="saturation_liquid" NumberOfComponents="1" format="ascii">
          0 0 0 0 0 0 0 0 0 0 0 0
          0 0 0 0 0 0 0 0 0 0 0 0
          0 0 0 0 0 0 0 0 0 0 0 0
          0 0 0 0 0 0 2.45199e-05 1.31347e-05 0.00945105 0.00642799 0.663517 0.560548
          1 1 0 0 0 0 0 0 0 0 0 0
          0 0 0 0 0 0 0 0 0 0 0 8.45702e-06
          0.00564673 0.554726 1 0 0 0 0 0 0 0 0 0
          0 0 0 0 0 0 0 0 0 0 0 0
          9.64495e-07 0.00405223 0.516344 1 0 0 0 0 0 0 0 0
          0 0 0 0 0 0 0 0 0 0 0 0
          0 0 0.00100561 0.279087 1 0 0 0 0 0 0 0
          0 0 0 0 0 0 0 0 0 0 0 0
          0 0 0 0 1.00677e-05 0.199027 0 0 0 0 0 0
          0 0 0 0 0 0 0 0 0 0 0 0
          0 0 0 0 0 0 0 0 0 0 0 0
          0 0 0 0 0 0 0 0 0 0 0 0
          0 0 0 0 0 0 0 0 0 0 0 0
          0 0 0 0 0 0 0 0 0 0 0 0
          0 0 0 0 0 0 0 0 0 0 0 0
          0 0 0 0 0 0 0 0 0 0 0 0
          0 0 0 0 0 0 0 0 0 0 0 0
          0 0 0 0 0 0 0 0 0 0 0 0
          0 0 0 0 0 0 0 0 0 0 0 0
          0 0 0 0 0 0 0 0 0 0 0 0
          0 0 0 0 0 0 0 0 0 0 0 0
          0 0 0 0 0 0 0 0 0 0 0 0
          0 0 0 0 0 0 0 0 0 0 0 0
          0 0 0 0 0 0 0 0 0 0 0 0
          0 0 0 0 0 0 0 0 0 0 0 0
          0 0 0 0 0 0 0 0 0 0 0 0
          0 0 0 0 0 0 0 0 0 0 0 0
          0 0 0 0 0 0 0 0 0 0 0 0
          0 0 0 0 0 0 0 0 0 0 0 0
          0 0 0 0 0 0 0 0 0 0 0 0
          0 0 0 0 0 0 0 0 0 0 0 0
          0 0 0 0 0
        </DataArray>
        <DataArray type="Float32" Name="saturation_gas" NumberOfComponents="1" format="ascii">
          1 1 1 1 1 1 1 1 1 1 1 1
          1 1 1 1 1 1 1 1 1 1 1 1
          1 1 1 1 1 1 1 1 1 1 1 1
          1 1 1 1 1 1 0.999976 0.999987 0.990549 0.993572 0.336483 0.439452
          0 0 1 1 1 1 1 1 1 1 1 1
          1 1 1 1 1 1 1 1 1 1 1 0.999992
          0.994353 0.445274 0 1 1 1 1 1 1 1 1 1
          1 1 1 1 1 1 1 1 1 1 1 1
          0.999999 0.995948 0.483656 0 1 1 1 1 1 1 1 1
          1 1 1 1 1 1 1 1 1 1 1 1
          1 1 0.998994 0.720913 0 1 1 1 1 1 1 1
          1 1 1 1 1 1 1 1 1 1 1 1
          1 1 1 1 0.99999 0.800973 1 1 1 1 1 1
          1 1 1 1 1 1 1 1 1 1 1 1
          1 1 1 1 1 1 1 1 1 1 1 1
          1 1 1 1 1 1 1 1 1 1 1 1
          1 1 1 1 1 1 1 1 1 1 1 1
          1 1 1 1 1 1 1 1 1 1 1 1
          1 1 1 1 1 1 1 1 1 1 1 1
          1 1 1 1 1 1 1 1 1 1 1 1
          1 1 1 1 1 1 1 1 1 1 1 1
          1 1 1 1 1 1 1 1 1 1 1 1
          1 1 1 1 1 1 1 1 1 1 1 1
          1 1 1 1 1 1 1 1 1 1 1 1
          1 1 1 1 1 1 1 1 1 1 1 1
          1 1 1 1 1 1 1 1 1 1 1 1
          1 1 1 1 1 1 1 1 1 1 1 1
          1 1 1 1 1 1 1 1 1 1 1 1
          1 1 1 1 1 1 1 1 1 1 1 1
          1 1 1 1 1 1 1 1 1 1 1 1
          1 1 1 1 1 1 1 1 1 1 1 1
          1 1 1 1 1 1 1 1 1 1 1 1
          1 1 1 1 1 1 1 1 1 1 1 1
          1 1 1 1 1 1 1 1 1 1 1 1
          1 1 1 1 1 1 1 1 1 1 1 1
          1 1 1 1 1
        </DataArray>
        <DataArray type="Float32" Name="relativePerm_liquid" NumberOfComponents="1" format="ascii">
          0 0 0 0 0 0 0 0 0 0 0 0
          0 0 0 0 0 0 0 0 0 0 0 0
          0 0 0 0 0 0 0 0 0 0 0 0
          0 0 0 0 0 0 2.45199e-05 1.31347e-05 0.00945105 0.00642799 0.663517 0.560548
          1 1 0 0 0 0 0 0 0 0 0 0
          0 0 0 0 0 0 0 0 0 0 0 8.45702e-06
          0.00564673 0.554726 1 0 0 0 0 0 0 0 0 0
          0 0 0 0 0 0 0 0 0 0 0 0
          9.64495e-07 0.00405223 0.516344 1 0 0 0 0 0 0 0 0
          0 0 0 0 0 0 0 0 0 0 0 0
          0 0 0.00100561 0.279087 1 0 0 0 0 0 0 0
          0 0 0 0 0 0 0 0 0 0 0 0
          0 0 0 0 1.00677e-05 0.199027 0 0 0 0 0 0
          0 0 0 0 0 0 0 0 0 0 0 0
          0 0 0 0 0 0 0 0 0 0 0 0
          0 0 0 0 0 0 0 0 0 0 0 0
          0 0 0 0 0 0 0 0 0 0 0 0
          0 0 0 0 0 0 0 0 0 0 0 0
          0 0 0 0 0 0 0 0 0 0 0 0
          0 0 0 0 0 0 0 0 0 0 0 0
          0 0 0 0 0 0 0 0 0 0 0 0
          0 0 0 0 0 0 0 0 0 0 0 0
          0 0 0 0 0 0 0 0 0 0 0 0
          0 0 0 0 0 0 0 0 0 0 0 0
          0 0 0 0 0 0 0 0 0 0 0 0
          0 0 0 0 0 0 0 0 0 0 0 0
          0 0 0 0 0 0 0 0 0 0 0 0
          0 0 0 0 0 0 0 0 0 0 0 0
          0 0 0 0 0 0 0 0 0 0 0 0
          0 0 0 0 0 0 0 0 0 0 0 0
          0 0 0 0 0 0 0 0 0 0 0 0
          0 0 0 0 0 0 0 0 0 0 0 0
          0 0 0 0 0 0 0 0 0 0 0 0
          0 0 0 0 0 0 0 0 0 0 0 0
          0 0 0 0 0 0 0 0 0 0 0 0
          0 0 0 0 0
        </DataArray>
        <DataArray type="Float32" Name="relativePerm_gas" NumberOfComponents="1" format="ascii">
          1 1 1 1 1 1 1 1 1 1 1 1
          1 1 1 1 1 1 1 1 1 1 1 1
          1 1 1 1 1 1 1 1 1 1 1 1
          1 1 1 1 1 1 0.999976 0.999987 0.990549 0.993572 0.336483 0.439452
          0 0 1 1 1 1 1 1 1 1 1 1
          1 1 1 1 1 1 1 1 1 1 1 0.999992
          0.994353 0.445274 0 1 1 1 1 1 1 1 1 1
          1 1 1 1 1 1 1 1 1 1 1 1
          0.999999 0.995948 0.483656 0 1 1 1 1 1 1 1 1
          1 1 1 1 1 1 1 1 1 1 1 1
          1 1 0.998994 0.720913 0 1 1 1 1 1 1 1
          1 1 1 1 1 1 1 1 1 1 1 1
          1 1 1 1 0.99999 0.800973 1 1 1 1 1 1
          1 1 1 1 1 1 1 1 1 1 1 1
          1 1 1 1 1 1 1 1 1 1 1 1
          1 1 1 1 1 1 1 1 1 1 1 1
          1 1 1 1 1 1 1 1 1 1 1 1
          1 1 1 1 1 1 1 1 1 1 1 1
          1 1 1 1 1 1 1 1 1 1 1 1
          1 1 1 1 1 1 1 1 1 1 1 1
          1 1 1 1 1 1 1 1 1 1 1 1
          1 1 1 1 1 1 1 1 1 1 1 1
          1 1 1 1 1 1 1 1 1 1 1 1
          1 1 1 1 1 1 1 1 1 1 1 1
          1 1 1 1 1 1 1 1 1 1 1 1
          1 1 1 1 1 1 1 1 1 1 1 1
          1 1 1 1 1 1 1 1 1 1 1 1
          1 1 1 1 1 1 1 1 1 1 1 1
          1 1 1 1 1 1 1 1 1 1 1 1
          1 1 1 1 1 1 1 1 1 1 1 1
          1 1 1 1 1 1 1 1 1 1 1 1
          1 1 1 1 1 1 1 1 1 1 1 1
          1 1 1 1 1 1 1 1 1 1 1 1
          1 1 1 1 1 1 1 1 1 1 1 1
          1 1 1 1 1 1 1 1 1 1 1 1
          1 1 1 1 1
        </DataArray>
        <DataArray type="Float32" Name="porosity" NumberOfComponents="1" format="ascii">
          0.3 0.3 0.3 0.3 0.3 0.3 0.3 0.3 0.3 0.3 0.3 0.3
          0.3 0.3 0.3 0.3 0.3 0.3 0.3 0.3 0.3 0.3 0.3 0.3
          0.3 0.3 0.3 0.3 0.3 0.3 0.3 0.3 0.3 0.3 0.3 0.3
          0.3 0.3 0.3 0.3 0.3 0.3 0.3 0.3 0.3 0.3 0.3 0.3
          0.3 0.3 0.3 0.3 0.3 0.3 0.3 0.3 0.3 0.3 0.3 0.3
          0.3 0.3 0.3 0.3 0.3 0.3 0.3 0.3 0.3 0.3 0.3 0.3
          0.3 0.3 0.3 0.3 0.3 0.3 0.3 0.3 0.3 0.3 0.3 0.3
          0.3 0.3 0.3 0.3 0.3 0.3 0.3 0.3 0.3 0.3 0.3 0.3
          0.3 0.3 0.3 0.3 0.3 0.3 0.3 0.3 0.3 0.3 0.3 0.3
          0.3 0.3 0.3 0.3 0.3 0.3 0.3 0.3 0.3 0.3 0.3 0.3
          0.3 0.3 0.3 0.3 0.3 0.3 0.3 0.3 0.3 0.3 0.3 0.3
          0.3 0.3 0.3 0.3 0.3 0.3 0.3 0.3 0.3 0.3 0.3 0.3
          0.3 0.3 0.3 0.3 0.3 0.3 0.3 0.3 0.3 0.3 0.3 0.3
          0.3 0.3 0.3 0.3 0.3 0.3 0.3 0.3 0.3 0.3 0.3 0.3
          0.3 0.3 0.3 0.3 0.3 0.3 0.3 0.3 0.3 0.3 0.3 0.3
          0.3 0.3 0.3 0.3 0.3 0.3 0.3 0.3 0.3 0.3 0.3 0.3
          0.3 0.3 0.3 0.3 0.3 0.3 0.3 0.3 0.3 0.3 0.3 0.3
          0.3 0.3 0.3 0.3 0.3 0.3 0.3 0.3 0.3 0.3 0.3 0.3
          0.3 0.3 0.3 0.3 0.3 0.3 0.3 0.3 0.3 0.3 0.3 0.3
          0.3 0.3 0.3 0.3 0.3 0.3 0.3 0.3 0.3 0.3 0.3 0.3
          0.3 0.3 0.3 0.3 0.3 0.3 0.3 0.3 0.3 0.3 0.3 0.3
          0.3 0.3 0.3 0.3 0.3 0.3 0.3 0.3 0.3 0.3 0.3 0.3
          0.3 0.3 0.3 0.3 0.3 0.3 0.3 0.3 0.3 0.3 0.3 0.3
          0.3 0.3 0.3 0.3 0.3 0.3 0.3 0.3 0.3 0.3 0.3 0.3
          0.3 0.3 0.3 0.3 0.3 0.3 0.3 0.3 0.3 0.3 0.3 0.3
          0.3 0.3 0.3 0.3 0.3 0.3 0.3 0.3 0.3 0.3 0.3 0.3
          0.3 0.3 0.3 0.3 0.3 0.3 0.3 0.3 0.3 0.3 0.3 0.3
          0.3 0.3 0.3 0.3 0.3 0.3 0.3 0.3 0.3 0.3 0.3 0.3
          0.3 0.3 0.3 0.3 0.3 0.3 0.3 0.3 0.3 0.3 0.3 0.3
          0.3 0.3 0.3 0.3 0.3 0.3 0.3 0.3 0.3 0.3 0.3 0.3
          0.3 0.3 0.3 0.3 0.3 0.3 0.3 0.3 0.3 0.3 0.3 0.3
          0.3 0.3 0.3 0.3 0.3 0.3 0.3 0.3 0.3 0.3 0.3 0.3
          0.3 0.3 0.3 0.3 0.3 0.3 0.3 0.3 0.3 0.3 0.3 0.3
          0.3 0.3 0.3 0.3 0.3 0.3 0.3 0.3 0.3 0.3 0.3 0.3
          0.3 0.3 0.3 0.3 0.3 0.3 0.3 0.3 0.3 0.3 0.3 0.3
          0.3 0.3 0.3 0.3 0.3
        </DataArray>
        <DataArray type="Float32" Name="temperature" NumberOfComponents="1" format="ascii">
          298.15 298.15 298.15 298.15 298.15 298.15 298.15 298.15 298.15 298.15 298.15 298.15
          298.15 298.15 298.15 298.15 298.15 298.15 298.15 298.15 298.15 298.15 298.15 298.15
          298.15 298.15 298.15 298.15 298.15 298.15 298.15 298.15 298.15 298.15 298.15 298.15
          298.15 298.15 298.15 298.15 298.15 298.15 298.15 298.15 298.15 298.15 298.15 298.15
          298.15 298.15 298.15 298.15 298.15 298.15 298.15 298.15 298.15 298.15 298.15 298.15
          298.15 298.15 298.15 298.15 298.15 298.15 298.15 298.15 298.15 298.15 298.15 298.15
          298.15 298.15 298.15 298.15 298.15 298.15 298.15 298.15 298.15 298.15 298.15 298.15
          298.15 298.15 298.15 298.15 298.15 298.15 298.15 298.15 298.15 298.15 298.15 298.15
          298.15 298.15 298.15 298.15 298.15 298.15 298.15 298.15 298.15 298.15 298.15 298.15
          298.15 298.15 298.15 298.15 298.15 298.15 298.15 298.15 298.15 298.15 298.15 298.15
          298.15 298.15 298.15 298.15 298.15 298.15 298.15 298.15 298.15 298.15 298.15 298.15
          298.15 298.15 298.15 298.15 298.15 298.15 298.15 298.15 298.15 298.15 298.15 298.15
          298.15 298.15 298.15 298.15 298.15 298.15 298.15 298.15 298.15 298.15 298.15 298.15
          298.15 298.15 298.15 298.15 298.15 298.15 298.15 298.15 298.15 298.15 298.15 298.15
          298.15 298.15 298.15 298.15 298.15 298.15 298.15 298.15 298.15 298.15 298.15 298.15
          298.15 298.15 298.15 298.15 298.15 298.15 298.15 298.15 298.15 298.15 298.15 298.15
          298.15 298.15 298.15 298.15 298.15 298.15 298.15 298.15 298.15 298.15 298.15 298.15
          298.15 298.15 298.15 298.15 298.15 298.15 298.15 298.15 298.15 298.15 298.15 298.15
          298.15 298.15 298.15 298.15 298.15 298.15 298.15 298.15 298.15 298.15 298.15 298.15
          298.15 298.15 298.15 298.15 298.15 298.15 298.15 298.15 298.15 298.15 298.15 298.15
          298.15 298.15 298.15 298.15 298.15 298.15 298.15 298.15 298.15 298.15 298.15 298.15
          298.15 298.15 298.15 298.15 298.15 298.15 298.15 298.15 298.15 298.15 298.15 298.15
          298.15 298.15 298.15 298.15 298.15 298.15 298.15 298.15 298.15 298.15 298.15 298.15
          298.15 298.15 298.15 298.15 298.15 298.15 298.15 298.15 298.15 298.15 298.15 298.15
          298.15 298.15 298.15 298.15 298.15 298.15 298.15 298.15 298.15 298.15 298.15 298.15
          298.15 298.15 298.15 298.15 298.15 298.15 298.15 298.15 298.15 298.15 298.15 298.15
          298.15 298.15 298.15 298.15 298.15 298.15 298.15 298.15 298.15 298.15 298.15 298.15
          298.15 298.15 298.15 298.15 298.15 298.15 298.15 298.15 298.15 298.15 298.15 298.15
          298.15 298.15 298.15 298.15 298.15 298.15 298.15 298.15 298.15 298.15 298.15 298.15
          298.15 298.15 298.15 298.15 298.15 298.15 298.15 298.15 298.15 298.15 298.15 298.15
          298.15 298.15 298.15 298.15 298.15 298.15 298.15 298.15 298.15 298.15 298.15 298.15
          298.15 298.15 298.15 298.15 298.15 298.15 298.15 298.15 298.15 298.15 298.15 298.15
          298.15 298.15 298.15 298.15 298.15 298.15 298.15 298.15 298.15 298.15 298.15 298.15
          298.15 298.15 298.15 298.15 298.15 298.15 298.15 298.15 298.15 298.15 298.15 298.15
          298.15 298.15 298.15 298.15 298.15 298.15 298.15 298.15 298.15 298.15 298.15 298.15
          298.15 298.15 298.15 298.15 298.15
        </DataArray>
        <DataArray type="Float32" Name="moleFrac_liquid^H2O" NumberOfComponents="1" format="ascii">
          0.31552 0.315568 0.315502 0.315536 0.315593 0.315557 0.315605 0.315567 0.3155 0.315491 0.315488 0.315483
          0.315488 0.315483 0.315494 0.315489 0.315768 0.315758 0.320237 0.320173 0.320374 0.320308 0.32064 0.320571
          0.321039 0.320967 0.321579 0.321501 0.322268 0.322183 0.323118 0.323023 0.324166 0.324054 0.325672 0.325507
          0.330046 0.329538 0.355184 0.35251 0.495755 0.484351 0.999988 0.999988 0.999988 0.999988 0.999988 0.999988
          0.999989 0.999989 0.315495 0.315517 0.315532 0.315539 0.315488 0.315483 0.315483 0.315489 0.315749 0.320068
          0.3202 0.320456 0.320841 0.321359 0.322018 0.322829 0.323816 0.325155 0.328565 0.347922 0.466581 0.999988
          0.999988 0.999988 0.99999 0.31549 0.315504 0.315514 0.31552 0.315486 0.315483 0.315483 0.315489 0.315738
          0.319926 0.320052 0.320297 0.320665 0.321158 0.321783 0.322548 0.323467 0.324646 0.327181 0.340987 0.436712
          0.999988 0.999988 0.999988 0.999991 0.315489 0.315496 0.315502 0.315505 0.315485 0.315483 0.315483 0.315488
          0.315726 0.319751 0.31987 0.320101 0.320445 0.320906 0.321488 0.322194 0.323031 0.324037 0.325618 0.331834
          0.374299 0.634373 0.999988 0.999988 0.999987 0.315488 0.31549 0.315493 0.315494 0.315484 0.315483 0.315483
          0.315488 0.315711 0.319549 0.319659 0.319873 0.320191 0.320615 0.321147 0.321786 0.322535 0.323398 0.324444
          0.32646 0.336027 0.39119 0.574799 0.999988 0.999988 0.315483 0.315484 0.315485 0.315486 0.315482 0.315483
          0.315483 0.315487 0.315695 0.319326 0.319427 0.319623 0.319913 0.320297 0.320775 0.321346 0.322006 0.322749
          0.323576 0.324573 0.326662 0.336028 0.375382 0.480177 0.492972 0.315477 0.315478 0.315478 0.315479 0.315482
          0.315483 0.315483 0.315487 0.315679 0.319089 0.319181 0.319358 0.31962 0.319964 0.320389 0.320892 0.321466
          0.322102 0.322789 0.323514 0.324347 0.325986 0.331772 0.347808 0.352241 0.315472 0.315472 0.315473 0.315473
          0.315481 0.315483 0.315483 0.315487 0.315662 0.318844 0.318927 0.319087 0.319321 0.319628 0.320003 0.320442
          0.320937 0.321478 0.32205 0.322633 0.323206 0.323799 0.324717 0.326649 0.32743 0.315468 0.315468 0.315469
          0.315469 0.31548 0.315483 0.315483 0.315486 0.315646 0.318598 0.318673 0.318817 0.319027 0.319299 0.31963
          0.320012 0.320437 0.320896 0.321373 0.321849 0.322301 0.322705 0.323056 0.323389 0.323527 0.315466 0.315466
          0.315467 0.315468 0.315479 0.315482 0.315483 0.315486 0.31563 0.318355 0.318424 0.318555 0.318745 0.318987
          0.319279 0.319612 0.319979 0.320368 0.320768 0.321161 0.321527 0.321845 0.322094 0.322259 0.322318 0.315465
          0.315466 0.315468 0.31547 0.315478 0.315482 0.315483 0.315485 0.315615 0.318119 0.318184 0.318307 0.318481
          0.3187 0.31896 0.319252 0.319571 0.319905 0.320243 0.320571 0.320873 0.321131 0.32133 0.321456 0.3215
          0.315466 0.315468 0.315473 0.315478 0.315477 0.315482 0.315483 0.315485 0.3156 0.317889 0.317956 0.318076
          0.318241 0.318444 0.318679 0.318941 0.319221 0.319512 0.319802 0.320081 0.320335 0.32055 0.320714 0.320818
          0.320853 0.315467 0.315472 0.315483 0.315494 0.315477 0.315483 0.315483 0.315485 0.315586 0.317663 0.31774
          0.317867 0.318031 0.318225 0.318444 0.318682 0.318934 0.319193 0.319448 0.319691 0.31991 0.320094 0.320234
          0.320322 0.320352 0.315466 0.315474 0.315498 0.315529 0.315486 0.315501 0.315512 0.315526 0.315622 0.317424
          0.317537 0.317686 0.317858 0.318049 0.318258 0.318482 0.318715 0.318951 0.319182 0.3194 0.319596 0.31976