<?xml version="1.0"?>
<VTKFile type="UnstructuredGrid" version="0.1" byte_order="LittleEndian">
  <UnstructuredGrid>
    <Piece NumberOfCells="384" NumberOfPoints="425">
      <PointData Scalars="pressure_liquid">
        <DataArray type="Float32" Name="pressure_liquid" NumberOfComponents="1" format="ascii">
          100014 100048 100006 100028 100065 100042 100073 100049 100005 100003 100002 100000
          100002 100000 100002 100000 100025 100022 100872 100840 100924 100891 101027 100993
          101184 101149 101401 101363 101684 101642 102038 101991 102471 102419 102992 102932
          103610 103539 104336 104251 105185 105082 106178 106048 107294 107137 109449 109044
          186007 182140 100004 100017 100027 100032 100002 100000 100000 100000 100021 100799
          100848 100947 101098 101305 101574 101910 102320 102810 103387 104059 104837 105734
          106741 108491 181584 100002 100010 100016 100019 100001 100000 100000 100000 100019
          100750 100797 100890 101033 101229 101482 101797 102180 102634 103164 103775 104470
          105258 106130 107603 179886 100001 100005 100008 100010 100001 100000 100000 100000
          100017 100695 100738 100825 100957 101138 101371 101659 102007 102417 102888 103422
          104013 104658 105341 106257 161843 99998.9 100000 100001 100002 100000 100000 100000
          100000 100015 100634 100674 100752 100872 101036 101246 101504 101813 102172 102579
          103029 103511 104004 104464 104792 104760 99993.8 99994.2 99994.9 99995.3 100000 100000
          100000 100000 100013 100570 100605 100676 100783 100928 101113 101339 101607 101915
          102258 102629 103012 103384 103705 103915 103945 99987.4 99987.6 99987.9 99988.1 99999.8
          100000 100000 100000 100012 100504 100536 100597 100691 100817 100977 101172 101400
          101658 101943 102243 102545 102827 103060 103211 103255 99980 99980.1 99980.3 99980.4
          99999.5 100000 100000 100000 100010 100439 100466 100519 100600 100708 100844 101009
          101199 101414 101645 101886 102122 102338 102512 102624 102662 99971.5 99971.6 99971.7
          99971.8 99999.2 100000 100000 100000 100008 100375 100398 100443 100512 100603 100718
          100855 101013 101188 101375 101566 101750 101916 102047 102132 102161 99961.8 99961.9
          99962 99962.2 99998.9 100000 100000 100000 100006 100313 100333 100371 100429 100506
          100601 100715 100844 100986 101135 101287 101431 101558 101658 101723 101745 99950.7
          99950.8 99951 99951.3 99998.5 100000 100000 100000 100005 100254 100271 100304 100353
          100417 100496 100590 100695 100810 100930 101049 101162 101261 101338 101387 101404
          99937.8 99938 99938.5 99939.1 99998 100000 100000 100000 100003 100199 100214 100243
          100284 100338 100405 100482 100568 100662 100758 100853 100943 101020 101080 101118
          101131 99922.9 99923.4 99924.5 99925.7 99997.3 99999.9 100000 100000 100002 100147 100161
          100187 100224 100270 100327 100392 100464 100541 100620 100698 100770 100831 100879
          100909 100920 99905.5 99906.3 99908.7 99911.9 99994.4 99998.1 99998.6 99998.9 99999.6 100096
          100113 100138 100172 100214 100263 100320 100382 100447 100515 100580 100640 100692
          100731 100756 100765 99884.7 99886 99890.5 99899.7 99919.4 99938.1 99957.8 99980 100007
          100043 100069 100096 100129 100168 100214 100265 100321 100381 100441 100499 100552
          100598 100633 100655 100662 99859.5 99861 99866 99875.9 99892.6 99910.7 99930.1 99952.1
          99978.1 100008 100036 100064 100096 100135 100179 100229 100283 100340 100398 100454
          100505 100548 100582 100603 100610
        </DataArray>
        <DataArray type="Float32" Name="pressure_gas" NumberOfComponents="1" format="ascii">
          100014 100048 100006 100028 100065 100042 100073 100049 100005 100003 100002 100000
          100002 100000 100002 100000 100025 100022 100872 100840 100924 100891 101027 100993
          101184 101149 101401 101363 101684 101642 102038 101991 102471 102419 102992 102932
          103610 103539 104336 104251 105185 105082 106178 106048 107294 107137 109449 109044
          186007 182140 100004 100017 100027 100032 100002 100000 100000 100000 100021 100799
          100848 100947 101098 101305 101574 101910 102320 102810 103387 104059 104837 105734
          106741 108491 181584 100002 100010 100016 100019 100001 100000 100000 100000 100019
          100750 100797 100890 101033 101229 101482 101797 102180 102634 103164 103775 104470
          105258 106130 107603 179886 100001 100005 100008 100010 100001 100000 100000 100000
          100017 100695 100738 100825 100957 101138 101371 101659 102007 102417 102888 103422
          104013 104658 105341 106257 161843 99998.9 100000 100001 100002 100000 100000 100000
          100000 100015 100634 100674 100752 100872 101036 101246 101504 101813 102172 102579
          103029 103511 104004 104464 104792 104760 99993.8 99994.2 99994.9 99995.3 100000 100000
          100000 100000 100013 100570 100605 100676 100783 100928 101113 101339 101607 101915
          102258 102629 103012 103384 103705 103915 103945 99987.4 99987.6 99987.9 99988.1 99999.8
          100000 100000 100000 100012 100504 100536 100597 100691 100817 100977 101172 101400
          101658 101943 102243 102545 102827 103060 103211 103255 99980 99980.1 99980.3 99980.4
          99999.5 100000 100000 100000 100010 100439 100466 100519 100600 100708 100844 101009
          101199 101414 101645 101886 102122 102338 102512 102624 102662 99971.5 99971.6 99971.7
          99971.8 99999.2 100000 100000 100000 100008 100375 100398 100443 100512 100603 100718
          100855 101013 101188 101375 101566 101750 101916 102047 102132 102161 99961.8 99961.9
          99962 99962.2 99998.9 100000 100000 100000 100006 100313 100333 100371 100429 100506
          100601 100715 100844 100986 101135 101287 101431 101558 101658 101723 101745 99950.7
          99950.8 99951 99951.3 99998.5 100000 100000 100000 100005 100254 100271 100304 100353
          100417 100496 100590 100695 100810 100930 101049 101162 101261 101338 101387 101404
          99937.8 99938 99938.5 99939.1 99998 100000 100000 100000 100003 100199 100214 100243
          100284 100338 100405 100482 100568 100662 100758 100853 100943 101020 101080 101118
          101131 99922.9 99923.4 99924.5 99925.7 99997.3 99999.9 100000 100000 100002 100147 100161
          100187 100224 100270 100327 100392 100464 100541 100620 100698 100770 100831 100879
          100909 100920 99905.5 99906.3 99908.7 99911.9 99994.4 99998.1 99998.6 99998.9 99999.6 100096
          100113 100138 100172 100214 100263 100320 100382 100447 100515 100580 100640 100692
          100731 100756 100765 99884.7 99886 99890.5 99899.7 99919.4 99938.1 99957.8 99980 100007
          100043 100069 100096 100129 100168 100214 100265 100321 100381 100441 100499 100552
          100598 100633 100655 100662 99859.5 99861 99866 99875.9 99892.6 99910.7 99930.1 99952.1
          99978.1 100008 100036 100064 100096 100135 100179 100229 100283 100340 100398 100454
          100505 100548 100582 100603 100610
        </DataArray>
        <DataArray type="Float32" Name="density_liquid" NumberOfComponents="1" format="ascii">
          997.068 997.068 997.068 997.068 997.068 997.068 997.068 997.068 997.068 997.068 997.068 997.068
          997.068 997.068 997.068 997.068 997.068 997.068 997.068 997.068 997.068 997.068 997.068 997.068
          997.068 997.068 997.068 997.068 997.069 997.069 997.069 997.069 997.069 997.069 997.069 997.069
          997.069 997.069 997.069 997.069 997.067 997.067 997.059 997.06 997.058 997.058 997.059 997.059
          997.096 997.093 997.068 997.068 997.068 997.068 997.068 997.068 997.068 997.068 997.068 997.068
          997.068 997.068 997.068 997.068 997.068 997.069 997.069 997.069 997.069 997.069 997.067 997.06
          997.057 997.058 997.093 997.068 997.068 997.068 997.068 997.068 997.068 997.068 997.068 997.068
          997.068 997.068 997.068 997.068 997.068 997.068 997.069 997.069 997.069 997.069 997.069 997.068
          997.061 997.057 997.058 997.091 997.068 997.068 997.068 997.068 997.068 997.068 997.068 997.068
          997.068 997.068 997.068 997.068 997.068 997.068 997.068 997.069 997.069 997.069 997.069 997.069
          997.068 997.063 997.057 997.057 997.086 997.068 997.068 997.068 997.068 997.068 997.068 997.068
          997.068 997.068 997.068 997.068 997.068 997.068 997.068 997.068 997.068 997.069 997.069 997.069
          997.069 997.069 997.068 997.063 997.06 997.056 997.068 997.068 997.068 997.068 997.068 997.068
          997.068 997.068 997.068 997.068 997.068 997.068 997.068 997.068 997.068 997.068 997.069 997.069
          997.069 997.069 997.069 997.069 997.068 997.066 997.064 997.068 997.068 997.068 997.068 997.068
          997.068 997.068 997.068 997.068 997.068 997.068 997.068 997.068 997.068 997.068 997.068 997.068
          997.069 997.069 997.069 997.069 997.069 997.069 997.069 997.068 997.068 997.068 997.068 997.068
          997.068 997.068 997.068 997.068 997.068 997.068 997.068 997.068 997.068 997.068 997.068 997.068
          997.068 997.068 997.069 997.069 997.069 997.069 997.069 997.069 997.069 997.068 997.068 997.068
          997.068 997.068 997.068 997.068 997.068 997.068 997.068 997.068 997.068 997.068 997.068 997.068
          997.068 997.068 997.068 997.068 997.068 997.069 997.069 997.069 997.069 997.069 997.068 997.068
          997.068 997.068 997.068 997.068 997.068 997.068 997.068 997.068 997.068 997.068 997.068 997.068
          997.068 997.068 997.068 997.068 997.068 997.068 997.068 997.068 997.069 997.069 997.069 997.068
          997.068 997.068 997.068 997.068 997.068 997.068 997.068 997.068 997.068 997.068 997.068 997.068
          997.068 997.068 997.068 997.068 997.068 997.068 997.068 997.068 997.068 997.068 997.068 997.068
          997.068 997.068 997.068 997.068 997.068 997.068 997.068 997.068 997.068 997.068 997.068 997.068
          997.068 997.068 997.068 997.068 997.068 997.068 997.068 997.068 997.068 997.068 997.068 997.068
          997.068 997.068 997.068 997.068 997.068 997.068 997.068 997.068 997.068 997.068 997.068 997.068
          997.068 997.068 997.068 997.068 997.068 997.068 997.068 997.068 997.068 997.068 997.068 997.068
          997.068 997.068 997.068 997.068 997.068 997.068 997.068 997.068 997.068 997.068 997.068 997.068
          997.068 997.068 997.068 997.068 997.068 997.068 997.068 997.068 997.068 997.068 997.068 997.068
          997.068 997.068 997.068 997.068 997.068 997.068 997.068 997.068 997.068 997.068 997.068 997.068
          997.068 997.068 997.068 997.068 997.068 997.068 997.068 997.068 997.068 997.068 997.068 997.068
          997.068 997.068 997.068 997.068 997.068 997.068 997.068 997.068 997.068 997.068 997.068 997.068
          997.068 997.068 997.068 997.068 997.068 997.068 997.068 997.068 997.068 997.068 997.068 997.068
          997.068 997.068 997.068 997.068 997.068
        </DataArray>
        <DataArray type="Float32" Name="density_gas" NumberOfComponents="1" format="ascii">
          1.12616 1.12654 1.12607 1.12632 1.12673 1.12648 1.12682 1.12655 1.12606 1.12603 1.12602 1.126
          1.12602 1.126 1.12602 1.12601 1.12629 1.12625 1.13583 1.13546 1.13641 1.13604 1.13756 1.13718
          1.13934 1.13894 1.14178 1.14135 1.14496 1.14449 1.14895 1.14843 1.15383 1.15324 1.1597 1.15902
          1.16664 1.16585 1.17472 1.17378 1.18351 1.18244 1.18979 1.18912 1.19973 1.19795 1.22407 1.2195
          2.08576 2.0415 1.12604 1.1262 1.12631 1.12636 1.12602 1.126 1.126 1.12601 1.12624 1.135
          1.13556 1.13666 1.13836 1.1407 1.14372 1.14751 1.15212 1.15764 1.16413 1.17163 1.17979 1.18601
          1.19347 1.21325 2.03467 1.12603 1.12612 1.12618 1.12622 1.12601 1.126 1.126 1.126 1.12622
          1.13445 1.13498 1.13603 1.13763 1.13984 1.14269 1.14624 1.15055 1.15566 1.16163 1.16846 1.17582
          1.18144 1.18657 1.20321 2.01389 1.12602 1.12606 1.1261 1.12612 1.12601 1.126 1.126 1.126
          1.1262 1.13383 1.13431 1.13529 1.13678 1.13881 1.14144 1.14469 1.14861 1.15321 1.15853 1.16451
          1.17093 1.17627 1.17766 1.18801 1.81615 1.12599 1.126 1.12602 1.12603 1.12601 1.126 1.126
          1.126 1.12617 1.13314 1.13359 1.13448 1.13583 1.13767 1.14003 1.14294 1.14641 1.15046 1.15505
          1.16011 1.1655 1.1707 1.17416 1.17605 1.17109 1.12593 1.12594 1.12594 1.12595 1.126 1.126
          1.126 1.126 1.12615 1.13242 1.13282 1.13361 1.13482 1.13645 1.13853 1.14108 1.14409 1.14756
          1.15143 1.1556 1.15992 1.16406 1.16743 1.16932 1.16878 1.12586 1.12586 1.12587 1.12587 1.126
          1.126 1.126 1.126 1.12613 1.13168 1.13203 1.13273 1.13378 1.1352 1.13701 1.1392 1.14176
          1.14468 1.14788 1.15126 1.15466 1.15783 1.16044 1.16208 1.16247 1.12578 1.12578 1.12578 1.12578
          1.126 1.126 1.126 1.126 1.12611 1.13094 1.13125 1.13185 1.13276 1.13397 1.13551 1.13736
          1.13951 1.14192 1.14453 1.14724 1.1499 1.15232 1.15429 1.15555 1.15596 1.12568 1.12568 1.12568
          1.12569 1.12599 1.126 1.126 1.126 1.12609 1.13022 1.13048 1.13099 1.13177 1.1328 1.13409
          1.13563 1.13741 1.13938 1.14148 1.14363 1.14571 1.14757 1.14906 1.15001 1.15034 1.12557 1.12557
          1.12558 1.12558 1.12599 1.126 1.126 1.126 1.12608 1.12953 1.12975 1.13018 1.13083 1.1317
          1.13277 1.13405 1.1355 1.1371 1.13879 1.14049 1.14211 1.14355 1.14468 1.1454 1.14565 1.12545
          1.12545 1.12545 1.12545 1.12599 1.126 1.126 1.126 1.12606 1.12887 1.12906 1.12943 1.12998
          1.1307 1.13159 1.13264 1.13383 1.13512 1.13647 1.13782 1.13909 1.1402 1.14107 1.14162 1.14181
          1.1253 1.1253 1.12531 1.12532 1.12598 1.126 1.126 1.126 1.12604 1.12825 1.12841 1.12873
          1.1292 1.12981 1.13056 1.13143 1.1324 1.13345 1.13454 1.13561 1.13662 1.13749 1.13816 1.13859
          1.13874 1.12513 1.12514 1.12515 1.12517 1.12597 1.126 1.126 1.126 1.12602 1.12766 1.12782
          1.12811 1.12852 1.12905 1.12968 1.13041 1.13123 1.13209 1.13298 1.13386 1.13467 1.13536 1.1359
          1.13624 1.13636 1.12494 1.12495 1.12497 1.12501 1.12594 1.12598 1.12599 1.12599 1.126 1.12709
          1.12727 1.12756 1.12794 1.12841 1.12896 1.1296 1.1303 1.13104 1.1318 1.13253 1.13321 1.13379
          1.13424 1.13452 1.13461 1.1247 1.12472 1.12477 1.12487 1.1251 1.12531 1.12553 1.12578 1.12608
          1.12648 1.12678 1.12709 1.12746 1.1279 1.12841 1.12899 1.12962 1.13029 1.13097 1.13162 1.13222
          1.13274 1.13313 1.13338 1.13346 1.12442 1.12444 1.12449 1.12461 1.12479 1.125 1.12522 1.12546
          1.12576 1.1261 1.1264 1.12672 1.12709 1.12752 1.12802 1.12858 1.12919 1.12983 1.13048 1.13111
          1.13169 1.13218 1.13255 1.13279 1.13287
        </DataArray>
        <DataArray type="Float32" Name="saturation_liquid" NumberOfComponents="1" format="ascii">
          0 0 0 0 0 0 0 0 0 0 0 0
          0 0 0 0 0 0 0 0 0 0 0 0
          0 0 0 0 0 0 0 0 0 0 0 0
          0 0 0 0 0 0 0 0 0.00230034 0.00165818 0.39038 0.327809
          1 1 0 0 0 0 0 0 0 0 0 0
          0 0 0 0 0 0 0 0 0 0 0 0
          0.0015297 0.327316 1 0 0 0 0 0 0 0 0 0
          0 0 0 0 0 0 0 0 0 0 0 0
          0 0.00121355 0.311901 1 0 0 0 0 0 0 0 0
          0 0 0 0 0 0 0 0 0 0 0 0
          0 0 0.000365438 0.178562 1.00238 0 0 0 0 0 0 0
          0 0 0 0 0 0 0 0 0 0 0 0
          0 0 0 0 0 0.0953004 0 0 0 0 0 0
          0 0 0 0 0 0 0 0 0 0 0 0
          0 0 0 0 0 0 0 0 0 0 0 0
          0 0 0 0 0 0 0 0 0 0 0 0
          0 0 0 0 0 0 0 0 0 0 0 0
          0 0 0 0 0 0 0 0 0 0 0 0
          0 0 0 0 0 0 0 0 0 0 0 0
          0 0 0 0 0 0 0 0 0 0 0 0
          0 0 0 0 0 0 0 0 0 0 0 0
          0 0 0 0 0 0 0 0 0 0 0 0
          0 0 0 0 0 0 0 0 0 0 0 0
          0 0 0 0 0 0 0 0 0 0 0 0
          0 0 0 0 0 0 0 0 0 0 0 0
          0 0 0 0 0 0 0 0 0 0 0 0
          0 0 0 0 0 0 0 0 0 0 0 0
          0 0 0 0 0 0 0 0 0 0 0 0
          0 0 0 0 0 0 0 0 0 0 0 0
          0 0 0 0 0 0 0 0 0 0 0 0
          0 0 0 0 0 0 0 0 0 0 0 0
          0 0 0 0 0 0 0 0 0 0 0 0
          0 0 0 0 0 0 0 0 0 0 0 0
          0 0 0 0 0 0 0 0 0 0 0 0
          0 0 0 0 0 0 0 0 0 0 0 0
          0 0 0 0 0
        </DataArray>
        <DataArray type="Float32" Name="saturation_gas" NumberOfComponents="1" format="ascii">
          1 1 1 1 1 1 1 1 1 1 1 1
          1 1 1 1 1 1 1 1 1 1 1 1
          1 1 1 1 1 1 1 1 1 1 1 1
          1 1 1 1 1 1 1 1 0.9977 0.998342 0.60962 0.672191
          0 0 1 1 1 1 1 1 1 1 1 1
          1 1 1 1 1 1 1 1 1 1 1 1
          0.99847 0.672684 0 1 1 1 1 1 1 1 1 1
          1 1 1 1 1 1 1 1 1 1 1 1
          1 0.998786 0.688099 0 1 1 1 1 1 1 1 1
          1 1 1 1 1 1 1 1 1 1 1 1
          1 1 0.999635 0.821438 -0.00238483 1 1 1 1 1 1 1
          1 1 1 1 1 1 1 1 1 1 1 1
          1 1 1 1 1 0.9047 1 1 1 1 1 1
          1 1 1 1 1 1 1 1 1 1 1 1
          1 1 1 1 1 1 1 1 1 1 1 1
          1 1 1 1 1 1 1 1 1 1 1 1
          1 1 1 1 1 1 1 1 1 1 1 1
          1 1 1 1 1 1 1 1 1 1 1 1
          1 1 1 1 1 1 1 1 1 1 1 1
          1 1 1 1 1 1 1 1 1 1 1 1
          1 1 1 1 1 1 1 1 1 1 1 1
          1 1 1 1 1 1 1 1 1 1 1 1
          1 1 1 1 1 1 1 1 1 1 1 1
          1 1 1 1 1 1 1 1 1 1 1 1
          1 1 1 1 1 1 1 1 1 1 1 1
          1 1 1 1 1 1 1 1 1 1 1 1
          1 1 1 1 1 1 1 1 1 1 1 1
          1 1 1 1 1 1 1 1 1 1 1 1
          1 1 1 1 1 1 1 1 1 1 1 1
          1 1 1 1 1 1 1 1 1 1 1 1
          1 1 1 1 1 1 1 1 1 1 1 1
          1 1 1 1 1 1 1 1 1 1 1 1
          1 1 1 1 1 1 1 1 1 1 1 1
          1 1 1 1 1 1 1 1 1 1 1 1
          1 1 1 1 1 1 1 1 1 1 1 1
          1 1 1 1 1
        </DataArray>
        <DataArray type="Float32" Name="relativePerm_liquid" NumberOfComponents="1" format="ascii">
          0 0 0 0 0 0 0 0 0 0 0 0
          0 0 0 0 0 0 0 0 0 0 0 0
          0 0 0 0 0 0 0 0 0 0 0 0
          0 0 0 0 0 0 0 0 0.00230034 0.00165818 0.39038 0.327809
          1 1 0 0 0 0 0 0 0 0 0 0
          0 0 0 0 0 0 0 0 0 0 0 0
          0.0015297 0.327316 1 0 0 0 0 0 0 0 0 0
          0 0 0 0 0 0 0 0 0 0 0 0
          0 0.00121355 0.311901 1 0 0 0 0 0 0 0 0
          0 0 0 0 0 0 0 0 0 0 0 0
          0 0 0.000365438 0.178562 1 0 0 0 0 0 0 0
          0 0 0 0 0 0 0 0 0 0 0 0
          0 0 0 0 0 0.0953004 0 0 0 0 0 0
          0 0 0 0 0 0 0 0 0 0 0 0
          0 0 0 0 0 0 0 0 0 0 0 0
          0 0 0 0 0 0 0 0 0 0 0 0
          0 0 0 0 0 0 0 0 0 0 0 0
          0 0 0 0 0 0 0 0 0 0 0 0
          0 0 0 0 0 0 0 0 0 0 0 0
          0 0 0 0 0 0 0 0 0 0 0 0
          0 0 0 0 0 0 0 0 0 0 0 0
          0 0 0 0 0 0 0 0 0 0 0 0
          0 0 0 0 0 0 0 0 0 0 0 0
          0 0 0 0 0 0 0 0 0 0 0 0
          0 0 0 0 0 0 0 0 0 0 0 0
          0 0 0 0 0 0 0 0 0 0 0 0
          0 0 0 0 0 0 0 0 0 0 0 0
          0 0 0 0 0 0 0 0 0 0 0 0
          0 0 0 0 0 0 0 0 0 0 0 0
          0 0 0 0 0 0 0 0 0 0 0 0
          0 0 0 0 0 0 0 0 0 0 0 0
          0 0 0 0 0 0 0 0 0 0 0 0
          0 0 0 0 0 0 0 0 0 0 0 0
          0 0 0 0 0 0 0 0 0 0 0 0
          0 0 0 0 0 0 0 0 0 0 0 0
          0 0 0 0 0
        </DataArray>
        <DataArray type="Float32" Name="relativePerm_gas" NumberOfComponents="1" format="ascii">
          1 1 1 1 1 1 1 1 1 1 1 1
          1 1 1 1 1 1 1 1 1 1 1 1
          1 1 1 1 1 1 1 1 1 1 1 1
          1 1 1 1 1 1 1 1 0.9977 0.998342 0.60962 0.672191
          0 0 1 1 1 1 1 1 1 1 1 1
          1 1 1 1 1 1 1 1 1 1 1 1
          0.99847 0.672684 0 1 1 1 1 1 1 1 1 1
          1 1 1 1 1 1 1 1 1 1 1 1
          1 0.998786 0.688099 0 1 1 1 1 1 1 1 1
          1 1 1 1 1 1 1 1 1 1 1 1
          1 1 0.999635 0.821438 0 1 1 1 1 1 1 1
          1 1 1 1 1 1 1 1 1 1 1 1
          1 1 1 1 1 0.9047 1 1 1 1 1 1
          1 1 1 1 1 1 1 1 1 1 1 1
          1 1 1 1 1 1 1 1 1 1 1 1
          1 1 1 1 1 1 1 1 1 1 1 1
          1 1 1 1 1 1 1 1 1 1 1 1
          1 1 1 1 1 1 1 1 1 1 1 1
          1 1 1 1 1 1 1 1 1 1 1 1
          1 1 1 1 1 1 1 1 1 1 1 1
          1 1 1 1 1 1 1 1 1 1 1 1
          1 1 1 1 1 1 1 1 1 1 1 1
          1 1 1 1 1 1 1 1 1 1 1 1
          1 1 1 1 1 1 1 1 1 1 1 1
          1 1 1 1 1 1 1 1 1 1 1 1
          1 1 1 1 1 1 1 1 1 1 1 1
          1 1 1 1 1 1 1 1 1 1 1 1
          1 1 1 1 1 1 1 1 1 1 1 1
          1 1 1 1 1 1 1 1 1 1 1 1
          1 1 1 1 1 1 1 1 1 1 1 1
          1 1 1 1 1 1 1 1 1 1 1 1
          1 1 1 1 1 1 1 1 1 1 1 1
          1 1 1 1 1 1 1 1 1 1 1 1
          1 1 1 1 1 1 1 1 1 1 1 1
          1 1 1 1 1 1 1 1 1 1 1 1
          1 1 1 1 1
        </DataArray>
        <DataArray type="Float32" Name="porosity" NumberOfComponents="1" format="ascii">
          0.3 0.3 0.3 0.3 0.3 0.3 0.3 0.3 0.3 0.3 0.3 0.3
          0.3 0.3 0.3 0.3 0.3 0.3 0.3 0.3 0.3 0.3 0.3 0.3
          0.3 0.3 0.3 0.3 0.3 0.3 0.3 0.3 0.3 0.3 0.3 0.3
          0.3 0.3 0.3 0.3 0.3 0.3 0.3 0.3 0.3 0.3 0.3 0.3
          0.3 0.3 0.3 0.3 0.3 0.3 0.3 0.3 0.3 0.3 0.3 0.3
          0.3 0.3 0.3 0.3 0.3 0.3 0.3 0.3 0.3 0.3 0.3 0.3
          0.3 0.3 0.3 0.3 0.3 0.3 0.3 0.3 0.3 0.3 0.3 0.3
          0.3 0.3 0.3 0.3 0.3 0.3 0.3 0.3 0.3 0.3 0.3 0.3
          0.3 0.3 0.3 0.3 0.3 0.3 0.3 0.3 0.3 0.3 0.3 0.3
          0.3 0.3 0.3 0.3 0.3 0.3 0.3 0.3 0.3 0.3 0.3 0.3
          0.3 0.3 0.3 0.3 0.3 0.3 0.3 0.3 0.3 0.3 0.3 0.3
          0.3 0.3 0.3 0.3 0.3 0.3 0.3 0.3 0.3 0.3 0.3 0.3
          0.3 0.3 0.3 0.3 0.3 0.3 0.3 0.3 0.3 0.3 0.3 0.3
          0.3 0.3 0.3 0.3 0.3 0.3 0.3 0.3 0.3 0.3 0.3 0.3
          0.3 0.3 0.3 0.3 0.3 0.3 0.3 0.3 0.3 0.3 0.3 0.3
          0.3 0.3 0.3 0.3 0.3 0.3 0.3 0.3 0.3 0.3 0.3 0.3
          0.3 0.3 0.3 0.3 0.3 0.3 0.3 0.3 0.3 0.3 0.3 0.3
          0.3 0.3 0.3 0.3 0.3 0.3 0.3 0.3 0.3 0.3 0.3 0.3
          0.3 0.3 0.3 0.3 0.3 0.3 0.3 0.3 0.3 0.3 0.3 0.3
          0.3 0.3 0.3 0.3 0.3 0.3 0.3 0.3 0.3 0.3 0.3 0.3
          0.3 0.3 0.3 0.3 0.3 0.3 0.3 0.3 0.3 0.3 0.3 0.3
          0.3 0.3 0.3 0.3 0.3 0.3 0.3 0.3 0.3 0.3 0.3 0.3
          0.3 0.3 0.3 0.3 0.3 0.3 0.3 0.3 0.3 0.3 0.3 0.3
          0.3 0.3 0.3 0.3 0.3 0.3 0.3 0.3 0.3 0.3 0.3 0.3
          0.3 0.3 0.3 0.3 0.3 0.3 0.3 0.3 0.3 0.3 0.3 0.3
          0.3 0.3 0.3 0.3 0.3 0.3 0.3 0.3 0.3 0.3 0.3 0.3
          0.3 0.3 0.3 0.3 0.3 0.3 0.3 0.3 0.3 0.3 0.3 0.3
          0.3 0.3 0.3 0.3 0.3 0.3 0.3 0.3 0.3 0.3 0.3 0.3
          0.3 0.3 0.3 0.3 0.3 0.3 0.3 0.3 0.3 0.3 0.3 0.3
          0.3 0.3 0.3 0.3 0.3 0.3 0.3 0.3 0.3 0.3 0.3 0.3
          0.3 0.3 0.3 0.3 0.3 0.3 0.3 0.3 0.3 0.3 0.3 0.3
          0.3 0.3 0.3 0.3 0.3 0.3 0.3 0.3 0.3 0.3 0.3 0.3
          0.3 0.3 0.3 0.3 0.3 0.3 0.3 0.3 0.3 0.3 0.3 0.3
          0.3 0.3 0.3 0.3 0.3 0.3 0.3 0.3 0.3 0.3 0.3 0.3
          0.3 0.3 0.3 0.3 0.3 0.3 0.3 0.3 0.3 0.3 0.3 0.3
          0.3 0.3 0.3 0.3 0.3
        </DataArray>
        <DataArray type="Float32" Name="temperature" NumberOfComponents="1" format="ascii">
          298.15 298.15 298.15 298.15 298.15 298.15 298.15 298.15 298.15 298.15 298.15 298.15
          298.15 298.15 298.15 298.15 298.15 298.15 298.15 298.15 298.15 298.15 298.15 298.15
          298.15 298.15 298.15 298.15 298.15 298.15 298.15 298.15 298.15 298.15 298.15 298.15
          298.15 298.15 298.15 298.15 298.15 298.15 298.15 298.15 298.15 298.15 298.15 298.15
          298.15 298.15 298.15 298.15 298.15 298.15 298.15 298.15 298.15 298.15 298.15 298.15
          298.15 298.15 298.15 298.15 298.15 298.15 298.15 298.15 298.15 298.15 298.15 298.15
          298.15 298.15 298.15 298.15 298.15 298.15 298.15 298.15 298.15 298.15 298.15 298.15
          298.15 298.15 298.15 298.15 298.15 298.15 298.15 298.15 298.15 298.15 298.15 298.15
          298.15 298.15 298.15 298.15 298.15 298.15 298.15 298.15 298.15 298.15 298.15 298.15
          298.15 298.15 298.15 298.15 298.15 298.15 298.15 298.15 298.15 298.15 298.15 298.15
          298.15 298.15 298.15 298.15 298.15 298.15 298.15 298.15 298.15 298.15 298.15 298.15
          298.15 298.15 298.15 298.15 298.15 298.15 298.15 298.15 298.15 298.15 298.15 298.15
          298.15 298.15 298.15 298.15 298.15 298.15 298.15 298.15 298.15 298.15 298.15 298.15
          298.15 298.15 298.15 298.15 298.15 298.15 298.15 298.15 298.15 298.15 298.15 298.15
          298.15 298.15 298.15 298.15 298.15 298.15 298.15 298.15 298.15 298.15 298.15 298.15
          298.15 298.15 298.15 298.15 298.15 298.15 298.15 298.15 298.15 298.15 298.15 298.15
          298.15 298.15 298.15 298.15 298.15 298.15 298.15 298.15 298.15 298.15 298.15 298.15
          298.15 298.15 298.15 298.15 298.15 298.15 298.15 298.15 298.15 298.15 298.15 298.15
          298.15 298.15 298.15 298.15 298.15 298.15 298.15 298.15 298.15 298.15 298.15 298.15
          298.15 298.15 298.15 298.15 298.15 298.15 298.15 298.15 298.15 298.15 298.15 298.15
          298.15 298.15 298.15 298.15 298.15 298.15 298.15 298.15 298.15 298.15 298.15 298.15
          298.15 298.15 298.15 298.15 298.15 298.15 298.15 298.15 298.15 298.15 298.15 298.15
          298.15 298.15 298.15 298.15 298.15 298.15 298.15 298.15 298.15 298.15 298.15 298.15
          298.15 298.15 298.15 298.15 298.15 298.15 298.15 298.15 298.15 298.15 298.15 298.15
          298.15 298.15 298.15 298.15 298.15 298.15 298.15 298.15 298.15 298.15 298.15 298.15
          298.15 298.15 298.15 298.15 298.15 298.15 298.15 298.15 298.15 298.15 298.15 298.15
          298.15 298.15 298.15 298.15 298.15 298.15 298.15 298.15 298.15 298.15 298.15 298.15
          298.15 298.15 298.15 298.15 298.15 298.15 298.15 298.15 298.15 298.15 298.15 298.15
          298.15 298.15 298.15 298.15 298.15 298.15 298.15 298.15 298.15 298.15 298.15 298.15
          298.15 298.15 298.15 298.15 298.15 298.15 298.15 298.15 298.15 298.15 298.15 298.15
          298.15 298.15 298.15 298.15 298.15 298.15 298.15 298.15 298.15 298.15 298.15 298.15
          298.15 298.15 298.15 298.15 298.15 298.15 298.15 298.15 298.15 298.15 298.15 298.15
          298.15 298.15 298.15 298.15 298.15 298.15 298.15 298.15 298.15 298.15 298.15 298.15
          298.15 298.15 298.15 298.15 298.15 298.15 298.15 298.15 298.15 298.15 298.15 298.15
          298.15 298.15 298.15 298.15 298.15 298.15 298.15 298.15 298.15 298.15 298.15 298.15
          298.15 298.15 298.15 298.15 298.15
        </DataArray>
        <DataArray type="Float32" Name="moleFrac_liquid^H2O" NumberOfComponents="1" format="ascii">
          0.315525 0.315633 0.315502 0.315572 0.315688 0.315616 0.315712 0.315637 0.3155 0.315491 0.315488 0.315483
          0.315488 0.315483 0.315489 0.315483 0.315563 0.315553 0.318235 0.318133 0.318397 0.318293 0.318722 0.318615
          0.319219 0.319106 0.319904 0.319783 0.320794 0.320663 0.321912 0.321765 0.323282 0.323116 0.32497 0.324773
          0.327586 0.327281 0.337269 0.336139 0.401093 0.393093 0.789485 0.726459 0.999988 0.999988 0.999988 0.999988
          0.999983 0.999984 0.315494 0.315537 0.315567 0.315583 0.315488 0.315483 0.315483 0.315483 0.315548 0.318004
          0.318159 0.31847 0.318945 0.319599 0.320447 0.321508 0.322803 0.324378 0.326662 0.334256 0.384342 0.692196
          0.999988 0.999988 0.999985 0.315489 0.315515 0.315534 0.315544 0.315486 0.315483 0.315483 0.315483 0.315542
          0.317849 0.317997 0.318291 0.318741 0.319359 0.320157 0.321152 0.32236 0.32381 0.325775 0.331501 0.370186
          0.627895 0.999988 0.999988 0.999986 0.315487 0.315498 0.315509 0.315514 0.315484 0.315483 0.315483 0.315483
          0.315537 0.317674 0.317811 0.318085 0.318502 0.319072 0.319807 0.320718 0.321815 0.323112 0.32471 0.32805
          0.348655 0.501725 0.999988 0.999988 0.999982 0.315479 0.315482 0.315487 0.31549 0.315483 0.315483 0.315483
          0.315483 0.315531 0.317483 0.317608 0.317857 0.318235 0.318751 0.319412 0.320227 0.321201 0.322335 0.323634
          0.325295 0.329861 0.35845 0.495123 0.637964 0.999988 0.315463 0.315464 0.315466 0.315468 0.315483 0.315483
          0.315483 0.315483 0.315525 0.317281 0.317393 0.317615 0.317952 0.318409 0.318993 0.319707 0.320552 0.321523
          0.322608 0.323798 0.325311 0.329582 0.35002 0.387659 0.457179 0.315443 0.315443 0.315444 0.315445 0.315482
          0.315483 0.315483 0.315483 0.315519 0.317074 0.317172 0.317367 0.317662 0.31806 0.318565 0.319179 0.319898
          0.320714 0.321611 0.32256 0.323533 0.324667 0.327213 0.332472 0.340747 0.31542 0.31542 0.31542 0.315421
          0.315481 0.315483 0.315483 0.315483 0.315514 0.316867 0.316952 0.31712 0.317374 0.317716 0.318146 0.318665
          0.319267 0.319942 0.320673 0.321432 0.322179 0.322872 0.32354 0.324285 0.325047 0.315393 0.315393 0.315393
          0.315394 0.31548 0.315483 0.315483 0.315483 0.315508 0.316664 0.316737 0.316881 0.317097 0.317386 0.317748
          0.31818 0.318678 0.31923 0.319819 0.320422 0.321005 0.321527 0.321948 0.322237 0.322364 0.315362 0.315362
          0.315363 0.315363 0.315479 0.315483 0.315483 0.315483 0.315503 0.31647 0.316532 0.316654 0.316836 0.317078
          0.31738 0.317737 0.318144 0.318592 0.319064 0.319541 0.319996 0.320398 0.320715 0.320919 0.32099 0.315327
          0.315327 0.315328 0.315329 0.315478 0.315483 0.315483 0.315483 0.315498 0.316285 0.316338 0.316442 0.316596
          0.316799 0.317049 0.317343 0.317676 0.318038 0.318416 0.318793 0.319149 0.31946 0.319703 0.319859 0.319912
          0.315286 0.315287 0.315289 0.31529 0.315476 0.315483 0.315483 0.315483 0.315493 0.316112 0.316158 0.316248
          0.316379 0.31655 0.316759 0.317003 0.317276 0.31757 0.317874 0.318175 0.318456 0.3187 0.31889 0.31901
          0.319051 0.315239 0.315241 0.315244 0.315248 0.315474 0.315482 0.315483 0.315483 0.315488 0.315947 0.315992
          0.316073 0.316188 0.316336 0.316514 0.316719 0.316946 0.317189 0.317439 0.317683 0.31791 0.318106 0.318256
          0.318352 0.318384 0.315184 0.315187 0.315195 0.315205 0.315465 0.315477 0.315478 0.315479 0.315481 0.315787
          0.315838 0.315918 0.316025 0.316156 0.316312 0.316491 0.316687 0.316894 0.317106 0.317312 0.317502 0.317665
          0.31779 0.317868 0.317895 0.315119 0.315123 0.315137 0.315166 0.315228 0.315287 0.315349 0.315419 0.315505