<?xml version="1.0"?>
<VTKFile type="UnstructuredGrid" version="0.1" byte_order="LittleEndian">
  <UnstructuredGrid>
    <Piece NumberOfCells="384" NumberOfPoints="425">
      <PointData Scalars="pressure_liquid">
        <DataArray type="Float32" Name="pressure_liquid" NumberOfComponents="1" format="ascii">
          100013 100050 100006 100029 100067 100044 100077 100051 100005 100003 100002 100000
          100002 100000 100002 100000 100024 100022 100862 100828 100908 100876 101006 100973
          101156 101121 101362 101325 101628 101588 101957 101914 102354 102307 102822 102770
          103364 103305 103986 103917 104701 104612 105535 105411 106496 106343 108286 108269
          186115 181804 100004 100017 100027 100032 100002 100000 100000 100000 100020 100787
          100834 100929 101074 101272 101528 101844 102225 102673 103189 103774 104423 105126
          105874 107347 181396 100002 100010 100016 100019 100001 100000 100000 100000 100018
          100740 100785 100875 101014 101203 101447 101749 102111 102536 103025 103574 104173
          104783 105263 105566 180378 100002 100005 100008 100010 100001 100000 100000 100000
          100016 100686 100729 100814 100944 101121 101350 101631 101969 102365 102819 103331
          103895 104496 105036 103975 164471 99999.1 99999.9 100001 100002 100000 100000 100000
          100000 100015 100628 100668 100746 100866 101029 101238 101496 101805 102166 102580
          103048 103577 104194 105072 108217 100481 99993.8 99994.1 99994.6 99995.1 100000 100000
          100000 100000 100013 100567 100603 100674 100782 100930 101118 101349 101625 101947
          102314 102728 103194 103732 104404 104500 104174 99987.3 99987.4 99987.7 99987.9 99999.8
          100000 100000 100000 100011 100504 100536 100599 100695 100826 100992 101196 101437
          101716 102032 102382 102762 103157 103488 103637 103654 99979.8 99979.8 99980 99980.1
          99999.5 100000 100000 100000 100010 100440 100468 100524 100608 100722 100866 101042
          101248 101485 101748 102033 102328 102608 102832 102966 103007 99971.1 99971.2 99971.3
          99971.5 99999.2 100000 100000 100000 100008 100377 100402 100450 100523 100620 100744
          100892 101066 101262 101477 101703 101929 102136 102300 102404 102439 99961.2 99961.2
          99961.4 99961.6 99998.9 100000 100000 100000 100006 100316 100337 100379 100441 100524
          100628 100752 100896 101057 101229 101407 101581 101736 101859 101937 101964 99949.8
          99949.9 99950 99950.3 99998.4 100000 100000 100000 100005 100258 100276 100312 100365
          100435 100522 100626 100744 100874 101012 101152 101286 101404 101497 101556 101576
          99936.8 99936.9 99937.1 99937.4 99997.9 100000 100000 100000 100003 100203 100219 100250
          100296 100356 100429 100515 100612 100718 100829 100939 101044 101135 101206 101251
          101267 99921.8 99922.1 99922.6 99922.8 99997.3 99999.9 100000 100000 100002 100151 100166
          100194 100235 100286 100349 100421 100502 100590 100680 100769 100853 100925 100980
          101016 101028 99904.4 99905.1 99907.2 99906.4 99995 99998 99998.5 99998.8 99999.6 100099
          100116 100144 100182 100228 100283 100346 100416 100490 100567 100641 100710 100770
          100815 100844 100854 99883.6 99885 99889.6 99902.8 99913.7 99934.3 99955.2 99979.2 100010
          100039 100071 100102 100139 100182 100233 100290 100353 100420 100488 100554 100615
          100667 100707 100732 100740 99858.4 99860.1 99865.9 99876 99889.5 99907 99927.7 99951.5
          99978.5 100007 100038 100070 100106 100148 100197 100253 100314 100378 100443 100506
          100565 100614 100652 100676 100684
        </DataArray>
        <DataArray type="Float32" Name="pressure_gas" NumberOfComponents="1" format="ascii">
          100013 100050 100006 100029 100067 100044 100077 100051 100005 100003 100002 100000
          100002 100000 100002 100000 100024 100022 100862 100828 100908 100876 101006 100973
          101156 101121 101362 101325 101628 101588 101957 101914 102354 102307 102822 102770
          103364 103305 103986 103917 104701 104612 105535 105411 106496 106343 108286 108269
          186115 181804 100004 100017 100027 100032 100002 100000 100000 100000 100020 100787
          100834 100929 101074 101272 101528 101844 102225 102673 103189 103774 104423 105126
          105874 107347 181396 100002 100010 100016 100019 100001 100000 100000 100000 100018
          100740 100785 100875 101014 101203 101447 101749 102111 102536 103025 103574 104173
          104783 105263 105566 180378 100002 100005 100008 100010 100001 100000 100000 100000
          100016 100686 100729 100814 100944 101121 101350 101631 101969 102365 102819 103331
          103895 104496 105036 103975 164471 99999.1 99999.9 100001 100002 100000 100000 100000
          100000 100015 100628 100668 100746 100866 101029 101238 101496 101805 102166 102580
          103048 103577 104194 105072 108217 100481 99993.8 99994.1 99994.6 99995.1 100000 100000
          100000 100000 100013 100567 100603 100674 100782 100930 101118 101349 101625 101947
          102314 102728 103194 103732 104404 104500 104174 99987.3 99987.4 99987.7 99987.9 99999.8
          100000 100000 100000 100011 100504 100536 100599 100695 100826 100992 101196 101437
          101716 102032 102382 102762 103157 103488 103637 103654 99979.8 99979.8 99980 99980.1
          99999.5 100000 100000 100000 100010 100440 100468 100524 100608 100722 100866 101042
          101248 101485 101748 102033 102328 102608 102832 102966 103007 99971.1 99971.2 99971.3
          99971.5 99999.2 100000 100000 100000 100008 100377 100402 100450 100523 100620 100744
          100892 101066 101262 101477 101703 101929 102136 102300 102404 102439 99961.2 99961.2
          99961.4 99961.6 99998.9 100000 100000 100000 100006 100316 100337 100379 100441 100524
          100628 100752 100896 101057 101229 101407 101581 101736 101859 101937 101964 99949.8
          99949.9 99950 99950.3 99998.4 100000 100000 100000 100005 100258 100276 100312 100365
          100435 100522 100626 100744 100874 101012 101152 101286 101404 101497 101556 101576
          99936.8 99936.9 99937.1 99937.4 99997.9 100000 100000 100000 100003 100203 100219 100250
          100296 100356 100429 100515 100612 100718 100829 100939 101044 101135 101206 101251
          101267 99921.8 99922.1 99922.6 99922.8 99997.3 99999.9 100000 100000 100002 100151 100166
          100194 100235 100286 100349 100421 100502 100590 100680 100769 100853 100925 100980
          101016 101028 99904.4 99905.1 99907.2 99906.4 99995 99998 99998.5 99998.8 99999.6 100099
          100116 100144 100182 100228 100283 100346 100416 100490 100567 100641 100710 100770
          100815 100844 100854 99883.6 99885 99889.6 99902.8 99913.7 99934.3 99955.2 99979.2 100010
          100039 100071 100102 100139 100182 100233 100290 100353 100420 100488 100554 100615
          100667 100707 100732 100740 99858.4 99860.1 99865.9 99876 99889.5 99907 99927.7 99951.5
          99978.5 100007 100038 100070 100106 100148 100197 100253 100314 100378 100443 100506
          100565 100614 100652 100676 100684
        </DataArray>
        <DataArray type="Float32" Name="density_liquid" NumberOfComponents="1" format="ascii">
          997.068 997.068 997.068 997.068 997.068 997.068 997.068 997.068 997.068 997.068 997.068 997.068
          997.068 997.068 997.068 997.068 997.068 997.068 997.068 997.068 997.068 997.068 997.068 997.068
          997.068 997.068 997.068 997.068 997.069 997.068 997.069 997.069 997.069 997.069 997.069 997.069
          997.069 997.069 997.069 997.069 997.067 997.067 997.06 997.06 997.057 997.057 997.058 997.058
          997.095 997.093 997.068 997.068 997.068 997.068 997.068 997.068 997.068 997.068 997.068 997.068
          997.068 997.068 997.068 997.068 997.068 997.069 997.069 997.069 997.069 997.069 997.068 997.061
          997.057 997.058 997.092 997.068 997.068 997.068 997.068 997.068 997.068 997.068 997.068 997.068
          997.068 997.068 997.068 997.068 997.068 997.068 997.069 997.069 997.069 997.069 997.069 997.068
          997.063 997.057 997.057 997.091 997.068 997.068 997.068 997.068 997.068 997.068 997.068 997.068
          997.068 997.068 997.068 997.068 997.068 997.068 997.068 997.069 997.069 997.069 997.069 997.069
          997.068 997.063 997.056 997.056 997.085 997.068 997.068 997.068 997.068 997.068 997.068 997.068
          997.068 997.068 997.068 997.068 997.068 997.068 997.068 997.068 997.068 997.069 997.069 997.069
          997.069 997.069 997.067 997.06 997.058 997.054 997.068 997.068 997.068 997.068 997.068 997.068
          997.068 997.068 997.068 997.068 997.068 997.068 997.068 997.068 997.068 997.068 997.069 997.069
          997.069 997.069 997.069 997.069 997.067 997.061 997.066 997.068 997.068 997.068 997.068 997.068
          997.068 997.068 997.068 997.068 997.068 997.068 997.068 997.068 997.068 997.068 997.068 997.068
          997.069 997.069 997.069 997.069 997.069 997.069 997.068 997.069 997.068 997.068 997.068 997.068
          997.068 997.068 997.068 997.068 997.068 997.068 997.068 997.068 997.068 997.068 997.068 997.068
          997.068 997.068 997.069 997.069 997.069 997.069 997.069 997.069 997.069 997.068 997.068 997.068
          997.068 997.068 997.068 997.068 997.068 997.068 997.068 997.068 997.068 997.068 997.068 997.068
          997.068 997.068 997.068 997.068 997.069 997.069 997.069 997.069 997.069 997.069 997.068 997.068
          997.068 997.068 997.068 997.068 997.068 997.068 997.068 997.068 997.068 997.068 997.068 997.068
          997.068 997.068 997.068 997.068 997.068 997.068 997.068 997.069 997.069 997.069 997.069 997.068
          997.068 997.068 997.068 997.068 997.068 997.068 997.068 997.068 997.068 997.068 997.068 997.068
          997.068 997.068 997.068 997.068 997.068 997.068 997.068 997.068 997.068 997.068 997.068 997.068
          997.068 997.068 997.068 997.068 997.068 997.068 997.068 997.068 997.068 997.068 997.068 997.068
          997.068 997.068 997.068 997.068 997.068 997.068 997.068 997.068 997.068 997.068 997.068 997.068
          997.068 997.068 997.068 997.068 997.068 997.068 997.068 997.068 997.068 997.068 997.068 997.068
          997.068 997.068 997.068 997.068 997.068 997.068 997.068 997.068 997.068 997.068 997.068 997.068
          997.068 997.068 997.068 997.068 997.068 997.068 997.068 997.068 997.068 997.068 997.068 997.068
          997.068 997.068 997.068 997.068 997.068 997.068 997.068 997.068 997.068 997.068 997.068 997.068
          997.068 997.068 997.068 997.068 997.068 997.068 997.068 997.068 997.068 997.068 997.068 997.068
          997.068 997.068 997.068 997.068 997.068 997.068 997.068 997.068 997.068 997.068 997.068 997.068
          997.068 997.068 997.068 997.068 997.068 997.068 997.068 997.068 997.068 997.068 997.068 997.068
          997.068 997.068 997.068 997.068 997.068 997.068 997.068 997.068 997.068 997.068 997.068 997.068
          997.068 997.068 997.068 997.068 997.068
        </DataArray>
        <DataArray type="Float32" Name="density_gas" NumberOfComponents="1" format="ascii">
          1.12615 1.12656 1.12608 1.12633 1.12676 1.1265 1.12687 1.12657 1.12606 1.12603 1.12602 1.126
          1.12602 1.126 1.12602 1.12601 1.12627 1.12624 1.13571 1.13532 1.13623 1.13586 1.13733 1.13695
          1.13902 1.13863 1.14134 1.14093 1.14433 1.14389 1.14804 1.14756 1.15251 1.15198 1.15777 1.15719
          1.16388 1.16321 1.17081 1.17004 1.17825 1.17732 1.18358 1.18259 1.1907 1.18898 1.21094 1.21074
          2.08671 2.03689 1.12604 1.1262 1.12631 1.12637 1.12602 1.126 1.126 1.126 1.12623 1.13486
          1.13539 1.13646 1.13809 1.14033 1.14321 1.14677 1.15106 1.1561 1.16191 1.16845 1.17532 1.18033
          1.18368 1.20032 2.03207 1.12603 1.12612 1.12619 1.12622 1.12601 1.126 1.126 1.126 1.12621
          1.13433 1.13484 1.13586 1.13742 1.13955 1.1423 1.14569 1.14977 1.15456 1.16006 1.16621 1.17267
          1.17765 1.17677 1.1802 2.01957 1.12602 1.12606 1.12609 1.12611 1.12601 1.126 1.126 1.126
          1.12619 1.13373 1.13421 1.13517 1.13663 1.13863 1.1412 1.14437 1.14818 1.15263 1.15775 1.16349
          1.16962 1.17472 1.17421 1.16222 1.84306 1.12599 1.126 1.12602 1.12603 1.12601 1.126 1.126
          1.126 1.12617 1.13308 1.13352 1.1344 1.13575 1.13759 1.13995 1.14285 1.14633 1.15039 1.15506
          1.16033 1.16623 1.17269 1.1791 1.21015 1.12274 1.12593 1.12594 1.12594 1.12595 1.126 1.126
          1.126 1.126 1.12615 1.13239 1.13279 1.13359 1.13481 1.13647 1.13859 1.1412 1.14431 1.14793
          1.15206 1.15672 1.16196 1.16795 1.17493 1.17374 1.17215 1.12586 1.12586 1.12586 1.12587 1.126
          1.126 1.126 1.126 1.12613 1.13167 1.13203 1.13275 1.13383 1.1353 1.13718 1.13947 1.14219
          1.14533 1.14889 1.15282 1.1571 1.16155 1.16521 1.16665 1.16706 1.12577 1.12578 1.12578 1.12578
          1.126 1.126 1.126 1.126 1.12611 1.13096 1.13127 1.1319 1.13285 1.13413 1.13576 1.13773
          1.14006 1.14272 1.14569 1.1489 1.15221 1.15537 1.15789 1.15937 1.15985 1.12568 1.12568 1.12568
          1.12568 1.12599 1.126 1.126 1.126 1.12609 1.13025 1.13052 1.13107 1.13189 1.13299 1.13437
          1.13605 1.13801 1.14022 1.14264 1.14518 1.14773 1.15005 1.1519 1.15307 1.15346 1.12557 1.12557
          1.12557 1.12557 1.12599 1.126 1.126 1.126 1.12607 1.12956 1.1298 1.13027 1.13097 1.1319
          1.13307 1.13448 1.13609 1.1379 1.13985 1.14185 1.1438 1.14555 1.14693 1.14782 1.14812 1.12544
          1.12544 1.12544 1.12544 1.12599 1.126 1.126 1.126 1.12606 1.12891 1.12912 1.12952 1.13011
          1.1309 1.13189 1.13305 1.13438 1.13584 1.1374 1.13897 1.14048 1.14181 1.14286 1.14352 1.14375
          1.12529 1.12529 1.12529 1.1253 1.12598 1.126 1.126 1.126 1.12604 1.12829 1.12847 1.12882
          1.12934 1.13001 1.13083 1.1318 1.13289 1.13409 1.13533 1.13658 1.13775 1.13878 1.13958 1.14009
          1.14027 1.12512 1.12513 1.12513 1.12513 1.12597 1.126 1.126 1.126 1.12602 1.1277 1.12787
          1.12819 1.12864 1.12923 1.12993 1.13075 1.13166 1.13264 1.13366 1.13466 1.1356 1.13641 1.13704
          1.13744 1.13758 1.12493 1.12493 1.12496 1.12495 1.12595 1.12598 1.12599 1.12599 1.126 1.12712
          1.12731 1.12763 1.12805 1.12857 1.12919 1.1299 1.13069 1.13153 1.13238 1.13322 1.134 1.13467
          1.13518 1.13551 1.13562 1.12469 1.12471 1.12476 1.12491 1.12503 1.12526 1.1255 1.12577 1.12611
          1.12644 1.12681 1.12715 1.12756 1.12805 1.12862 1.12927 1.12998 1.13073 1.1315 1.13224 1.13292
          1.13351 1.13396 1.13424 1.13434 1.12441 1.12443 1.12449 1.12461 1.12476 1.12496 1.12519 1.12546
          1.12576 1.12609 1.12643 1.12679 1.12719 1.12767 1.12822 1.12885 1.12953 1.13026 1.13099 1.1317
          1.13236 1.13292 1.13335 1.13362 1.13371
        </DataArray>
        <DataArray type="Float32" Name="saturation_liquid" NumberOfComponents="1" format="ascii">
          0 0 0 0 0 0 0 0 0 0 0 0
          0 0 0 0 0 0 0 0 0 0 0 0
          0 0 0 0 0 0 0 0 0 0 0 0
          0 0 0 0 0 0 0 0 0.00189137 0.00156974 0.39005 0.332365
          1 1 0 0 0 0 0 0 0 0 0 0
          0 0 0 0 0 0 0 0 0 0 0 0
          0.00112949 0.331067 1 0 0 0 0 0 0 0 0 0
          0 0 0 0 0 0 0 0 0 0 0 0
          0 0.00022499 0.309602 1 0 0 0 0 0 0 0 0
          0 0 0 0 0 0 0 0 0 0 0 0
          0 0 6.38542e-05 0.17509 1 0 0 0 0 0 0 0
          0 0 0 0 0 0 0 0 0 0 0 0
          0 0 0 0 0.00049117 0.0613651 0 0 0 0 0 0
          0 0 0 0 0 0 0 0 0 0 0 0
          0 0 0 0 0 0 0 0 0 0 0 0
          0 0 0 0 0 0 0 0 0 0 0 0
          0 0 0 0 0 0 0 0 0 0 0 0
          0 0 0 0 0 0 0 0 0 0 0 0
          0 0 0 0 0 0 0 0 0 0 0 0
          0 0 0 0 0 0 0 0 0 0 0 0
          0 0 0 0 0 0 0 0 0 0 0 0
          0 0 0 0 0 0 0 0 0 0 0 0
          0 0 0 0 0 0 0 0 0 0 0 0
          0 0 0 0 0 0 0 0 0 0 0 0
          0 0 0 0 0 0 0 0 0 0 0 0
          0 0 0 0 0 0 0 0 0 0 0 0
          0 0 0 0 0 0 0 0 0 0 0 0
          0 0 0 0 0 0 0 0 0 0 0 0
          0 0 0 0 0 0 0 0 0 0 0 0
          0 0 0 0 0 0 0 0 0 0 0 0
          0 0 0 0 0 0 0 0 0 0 0 0
          0 0 0 0 0 0 0 0 0 0 0 0
          0 0 0 0 0 0 0 0 0 0 0 0
          0 0 0 0 0 0 0 0 0 0 0 0
          0 0 0 0 0 0 0 0 0 0 0 0
          0 0 0 0 0
        </DataArray>
        <DataArray type="Float32" Name="saturation_gas" NumberOfComponents="1" format="ascii">
          1 1 1 1 1 1 1 1 1 1 1 1
          1 1 1 1 1 1 1 1 1 1 1 1
          1 1 1 1 1 1 1 1 1 1 1 1
          1 1 1 1 1 1 1 1 0.998109 0.99843 0.60995 0.667635
          0 0 1 1 1 1 1 1 1 1 1 1
          1 1 1 1 1 1 1 1 1 1 1 1
          0.99887 0.668933 0 1 1 1 1 1 1 1 1 1
          1 1 1 1 1 1 1 1 1 1 1 1
          1 0.999775 0.690398 0 1 1 1 1 1 1 1 1
          1 1 1 1 1 1 1 1 1 1 1 1
          1 1 0.999936 0.82491 0 1 1 1 1 1 1 1
          1 1 1 1 1 1 1 1 1 1 1 1
          1 1 1 1 0.999509 0.938635 1 1 1 1 1 1
          1 1 1 1 1 1 1 1 1 1 1 1
          1 1 1 1 1 1 1 1 1 1 1 1
          1 1 1 1 1 1 1 1 1 1 1 1
          1 1 1 1 1 1 1 1 1 1 1 1
          1 1 1 1 1 1 1 1 1 1 1 1
          1 1 1 1 1 1 1 1 1 1 1 1
          1 1 1 1 1 1 1 1 1 1 1 1
          1 1 1 1 1 1 1 1 1 1 1 1
          1 1 1 1 1 1 1 1 1 1 1 1
          1 1 1 1 1 1 1 1 1 1 1 1
          1 1 1 1 1 1 1 1 1 1 1 1
          1 1 1 1 1 1 1 1 1 1 1 1
          1 1 1 1 1 1 1 1 1 1 1 1
          1 1 1 1 1 1 1 1 1 1 1 1
          1 1 1 1 1 1 1 1 1 1 1 1
          1 1 1 1 1 1 1 1 1 1 1 1
          1 1 1 1 1 1 1 1 1 1 1 1
          1 1 1 1 1 1 1 1 1 1 1 1
          1 1 1 1 1 1 1 1 1 1 1 1
          1 1 1 1 1 1 1 1 1 1 1 1
          1 1 1 1 1 1 1 1 1 1 1 1
          1 1 1 1 1 1 1 1 1 1 1 1
          1 1 1 1 1
        </DataArray>
        <DataArray type="Float32" Name="relativePerm_liquid" NumberOfComponents="1" format="ascii">
          0 0 0 0 0 0 0 0 0 0 0 0
          0 0 0 0 0 0 0 0 0 0 0 0
          0 0 0 0 0 0 0 0 0 0 0 0
          0 0 0 0 0 0 0 0 0.00189137 0.00156974 0.39005 0.332365
          1 1 0 0 0 0 0 0 0 0 0 0
          0 0 0 0 0 0 0 0 0 0 0 0
          0.00112949 0.331067 1 0 0 0 0 0 0 0 0 0
          0 0 0 0 0 0 0 0 0 0 0 0
          0 0.00022499 0.309602 1 0 0 0 0 0 0 0 0
          0 0 0 0 0 0 0 0 0 0 0 0
          0 0 6.38542e-05 0.17509 1 0 0 0 0 0 0 0
          0 0 0 0 0 0 0 0 0 0 0 0
          0 0 0 0 0.00049117 0.0613651 0 0 0 0 0 0
          0 0 0 0 0 0 0 0 0 0 0 0
          0 0 0 0 0 0 0 0 0 0 0 0
          0 0 0 0 0 0 0 0 0 0 0 0
          0 0 0 0 0 0 0 0 0 0 0 0
          0 0 0 0 0 0 0 0 0 0 0 0
          0 0 0 0 0 0 0 0 0 0 0 0
          0 0 0 0 0 0 0 0 0 0 0 0
          0 0 0 0 0 0 0 0 0 0 0 0
          0 0 0 0 0 0 0 0 0 0 0 0
          0 0 0 0 0 0 0 0 0 0 0 0
          0 0 0 0 0 0 0 0 0 0 0 0
          0 0 0 0 0 0 0 0 0 0 0 0
          0 0 0 0 0 0 0 0 0 0 0 0
          0 0 0 0 0 0 0 0 0 0 0 0
          0 0 0 0 0 0 0 0 0 0 0 0
          0 0 0 0 0 0 0 0 0 0 0 0
          0 0 0 0 0 0 0 0 0 0 0 0
          0 0 0 0 0 0 0 0 0 0 0 0
          0 0 0 0 0 0 0 0 0 0 0 0
          0 0 0 0 0 0 0 0 0 0 0 0
          0 0 0 0 0 0 0 0 0 0 0 0
          0 0 0 0 0 0 0 0 0 0 0 0
          0 0 0 0 0
        </DataArray>
        <DataArray type="Float32" Name="relativePerm_gas" NumberOfComponents="1" format="ascii">
          1 1 1 1 1 1 1 1 1 1 1 1
          1 1 1 1 1 1 1 1 1 1 1 1
          1 1 1 1 1 1 1 1 1 1 1 1
          1 1 1 1 1 1 1 1 0.998109 0.99843 0.60995 0.667635
          0 0 1 1 1 1 1 1 1 1 1 1
          1 1 1 1 1 1 1 1 1 1 1 1
          0.99887 0.668933 0 1 1 1 1 1 1 1 1 1
          1 1 1 1 1 1 1 1 1 1 1 1
          1 0.999775 0.690398 0 1 1 1 1 1 1 1 1
          1 1 1 1 1 1 1 1 1 1 1 1
          1 1 0.999936 0.82491 0 1 1 1 1 1 1 1
          1 1 1 1 1 1 1 1 1 1 1 1
          1 1 1 1 0.999509 0.938635 1 1 1 1 1 1
          1 1 1 1 1 1 1 1 1 1 1 1
          1 1 1 1 1 1 1 1 1 1 1 1
          1 1 1 1 1 1 1 1 1 1 1 1
          1 1 1 1 1 1 1 1 1 1 1 1
          1 1 1 1 1 1 1 1 1 1 1 1
          1 1 1 1 1 1 1 1 1 1 1 1
          1 1 1 1 1 1 1 1 1 1 1 1
          1 1 1 1 1 1 1 1 1 1 1 1
          1 1 1 1 1 1 1 1 1 1 1 1
          1 1 1 1 1 1 1 1 1 1 1 1
          1 1 1 1 1 1 1 1 1 1 1 1
          1 1 1 1 1 1 1 1 1 1 1 1
          1 1 1 1 1 1 1 1 1 1 1 1
          1 1 1 1 1 1 1 1 1 1 1 1
          1 1 1 1 1 1 1 1 1 1 1 1
          1 1 1 1 1 1 1 1 1 1 1 1
          1 1 1 1 1 1 1 1 1 1 1 1
          1 1 1 1 1 1 1 1 1 1 1 1
          1 1 1 1 1 1 1 1 1 1 1 1
          1 1 1 1 1 1 1 1 1 1 1 1
          1 1 1 1 1 1 1 1 1 1 1 1
          1 1 1 1 1 1 1 1 1 1 1 1
          1 1 1 1 1
        </DataArray>
        <DataArray type="Float32" Name="porosity" NumberOfComponents="1" format="ascii">
          0.3 0.3 0.3 0.3 0.3 0.3 0.3 0.3 0.3 0.3 0.3 0.3
          0.3 0.3 0.3 0.3 0.3 0.3 0.3 0.3 0.3 0.3 0.3 0.3
          0.3 0.3 0.3 0.3 0.3 0.3 0.3 0.3 0.3 0.3 0.3 0.3
          0.3 0.3 0.3 0.3 0.3 0.3 0.3 0.3 0.3 0.3 0.3 0.3
          0.3 0.3 0.3 0.3 0.3 0.3 0.3 0.3 0.3 0.3 0.3 0.3
          0.3 0.3 0.3 0.3 0.3 0.3 0.3 0.3 0.3 0.3 0.3 0.3
          0.3 0.3 0.3 0.3 0.3 0.3 0.3 0.3 0.3 0.3 0.3 0.3
          0.3 0.3 0.3 0.3 0.3 0.3 0.3 0.3 0.3 0.3 0.3 0.3
          0.3 0.3 0.3 0.3 0.3 0.3 0.3 0.3 0.3 0.3 0.3 0.3
          0.3 0.3 0.3 0.3 0.3 0.3 0.3 0.3 0.3 0.3 0.3 0.3
          0.3 0.3 0.3 0.3 0.3 0.3 0.3 0.3 0.3 0.3 0.3 0.3
          0.3 0.3 0.3 0.3 0.3 0.3 0.3 0.3 0.3 0.3 0.3 0.3
          0.3 0.3 0.3 0.3 0.3 0.3 0.3 0.3 0.3 0.3 0.3 0.3
          0.3 0.3 0.3 0.3 0.3 0.3 0.3 0.3 0.3 0.3 0.3 0.3
          0.3 0.3 0.3 0.3 0.3 0.3 0.3 0.3 0.3 0.3 0.3 0.3
          0.3 0.3 0.3 0.3 0.3 0.3 0.3 0.3 0.3 0.3 0.3 0.3
          0.3 0.3 0.3 0.3 0.3 0.3 0.3 0.3 0.3 0.3 0.3 0.3
          0.3 0.3 0.3 0.3 0.3 0.3 0.3 0.3 0.3 0.3 0.3 0.3
          0.3 0.3 0.3 0.3 0.3 0.3 0.3 0.3 0.3 0.3 0.3 0.3
          0.3 0.3 0.3 0.3 0.3 0.3 0.3 0.3 0.3 0.3 0.3 0.3
          0.3 0.3 0.3 0.3 0.3 0.3 0.3 0.3 0.3 0.3 0.3 0.3
          0.3 0.3 0.3 0.3 0.3 0.3 0.3 0.3 0.3 0.3 0.3 0.3
          0.3 0.3 0.3 0.3 0.3 0.3 0.3 0.3 0.3 0.3 0.3 0.3
          0.3 0.3 0.3 0.3 0.3 0.3 0.3 0.3 0.3 0.3 0.3 0.3
          0.3 0.3 0.3 0.3 0.3 0.3 0.3 0.3 0.3 0.3 0.3 0.3
          0.3 0.3 0.3 0.3 0.3 0.3 0.3 0.3 0.3 0.3 0.3 0.3
          0.3 0.3 0.3 0.3 0.3 0.3 0.3 0.3 0.3 0.3 0.3 0.3
          0.3 0.3 0.3 0.3 0.3 0.3 0.3 0.3 0.3 0.3 0.3 0.3
          0.3 0.3 0.3 0.3 0.3 0.3 0.3 0.3 0.3 0.3 0.3 0.3
          0.3 0.3 0.3 0.3 0.3 0.3 0.3 0.3 0.3 0.3 0.3 0.3
          0.3 0.3 0.3 0.3 0.3 0.3 0.3 0.3 0.3 0.3 0.3 0.3
          0.3 0.3 0.3 0.3 0.3 0.3 0.3 0.3 0.3 0.3 0.3 0.3
          0.3 0.3 0.3 0.3 0.3 0.3 0.3 0.3 0.3 0.3 0.3 0.3
          0.3 0.3 0.3 0.3 0.3 0.3 0.3 0.3 0.3 0.3 0.3 0.3
          0.3 0.3 0.3 0.3 0.3 0.3 0.3 0.3 0.3 0.3 0.3 0.3
          0.3 0.3 0.3 0.3 0.3
        </DataArray>
        <DataArray type="Float32" Name="temperature" NumberOfComponents="1" format="ascii">
          298.15 298.15 298.15 298.15 298.15 298.15 298.15 298.15 298.15 298.15 298.15 298.15
          298.15 298.15 298.15 298.15 298.15 298.15 298.15 298.15 298.15 298.15 298.15 298.15
          298.15 298.15 298.15 298.15 298.15 298.15 298.15 298.15 298.15 298.15 298.15 298.15
          298.15 298.15 298.15 298.15 298.15 298.15 298.15 298.15 298.15 298.15 298.15 298.15
          298.15 298.15 298.15 298.15 298.15 298.15 298.15 298.15 298.15 298.15 298.15 298.15
          298.15 298.15 298.15 298.15 298.15 298.15 298.15 298.15 298.15 298.15 298.15 298.15
          298.15 298.15 298.15 298.15 298.15 298.15 298.15 298.15 298.15 298.15 298.15 298.15
          298.15 298.15 298.15 298.15 298.15 298.15 298.15 298.15 298.15 298.15 298.15 298.15
          298.15 298.15 298.15 298.15 298.15 298.15 298.15 298.15 298.15 298.15 298.15 298.15
          298.15 298.15 298.15 298.15 298.15 298.15 298.15 298.15 298.15 298.15 298.15 298.15
          298.15 298.15 298.15 298.15 298.15 298.15 298.15 298.15 298.15 298.15 298.15 298.15
          298.15 298.15 298.15 298.15 298.15 298.15 298.15 298.15 298.15 298.15 298.15 298.15
          298.15 298.15 298.15 298.15 298.15 298.15 298.15 298.15 298.15 298.15 298.15 298.15
          298.15 298.15 298.15 298.15 298.15 298.15 298.15 298.15 298.15 298.15 298.15 298.15
          298.15 298.15 298.15 298.15 298.15 298.15 298.15 298.15 298.15 298.15 298.15 298.15
          298.15 298.15 298.15 298.15 298.15 298.15 298.15 298.15 298.15 298.15 298.15 298.15
          298.15 298.15 298.15 298.15 298.15 298.15 298.15 298.15 298.15 298.15 298.15 298.15
          298.15 298.15 298.15 298.15 298.15 298.15 298.15 298.15 298.15 298.15 298.15 298.15
          298.15 298.15 298.15 298.15 298.15 298.15 298.15 298.15 298.15 298.15 298.15 298.15
          298.15 298.15 298.15 298.15 298.15 298.15 298.15 298.15 298.15 298.15 298.15 298.15
          298.15 298.15 298.15 298.15 298.15 298.15 298.15 298.15 298.15 298.15 298.15 298.15
          298.15 298.15 298.15 298.15 298.15 298.15 298.15 298.15 298.15 298.15 298.15 298.15
          298.15 298.15 298.15 298.15 298.15 298.15 298.15 298.15 298.15 298.15 298.15 298.15
          298.15 298.15 298.15 298.15 298.15 298.15 298.15 298.15 298.15 298.15 298.15 298.15
          298.15 298.15 298.15 298.15 298.15 298.15 298.15 298.15 298.15 298.15 298.15 298.15
          298.15 298.15 298.15 298.15 298.15 298.15 298.15 298.15 298.15 298.15 298.15 298.15
          298.15 298.15 298.15 298.15 298.15 298.15 298.15 298.15 298.15 298.15 298.15 298.15
          298.15 298.15 298.15 298.15 298.15 298.15 298.15 298.15 298.15 298.15 298.15 298.15
          298.15 298.15 298.15 298.15 298.15 298.15 298.15 298.15 298.15 298.15 298.15 298.15
          298.15 298.15 298.15 298.15 298.15 298.15 298.15 298.15 298.15 298.15 298.15 298.15
          298.15 298.15 298.15 298.15 298.15 298.15 298.15 298.15 298.15 298.15 298.15 298.15
          298.15 298.15 298.15 298.15 298.15 298.15 298.15 298.15 298.15 298.15 298.15 298.15
          298.15 298.15 298.15 298.15 298.15 298.15 298.15 298.15 298.15 298.15 298.15 298.15
          298.15 298.15 298.15 298.15 298.15 298.15 298.15 298.15 298.15 298.15 298.15 298.15
          298.15 298.15 298.15 298.15 298.15 298.15 298.15 298.15 298.15 298.15 298.15 298.15
          298.15 298.15 298.15 298.15 298.15
        </DataArray>
        <DataArray type="Float32" Name="moleFrac_liquid^H2O" NumberOfComponents="1" format="ascii">
          0.315523 0.31564 0.315503 0.315574 0.315695 0.315621 0.315726 0.315642 0.315499 0.315491 0.315488 0.315483
          0.315488 0.315483 0.315488 0.315483 0.315559 0.31555 0.318202 0.318094 0.318348 0.318245 0.318656 0.318551
          0.31913 0.31902 0.31978 0.319664 0.320617 0.320494 0.321656 0.321522 0.322909 0.322762 0.324413 0.324247
          0.326574 0.326337 0.333915 0.333121 0.383935 0.37882 0.707 0.673876 0.999988 0.999988 0.999988 0.999988
          0.999984 0.999985 0.315494 0.315538 0.315569 0.315584 0.315488 0.315483 0.315483 0.315483 0.315545 0.317965
          0.318114 0.318413 0.31887 0.319496 0.320302 0.321301 0.322503 0.323934 0.325858 0.331373 0.366978 0.598901
          0.999988 0.999988 0.999985 0.31549 0.315515 0.315534 0.315543 0.315486 0.315483 0.315483 0.315483 0.31554
          0.317816 0.317958 0.318244 0.318682 0.319279 0.320048 0.320999 0.322143 0.323494 0.325222 0.329415 0.354379
          0.504878 0.999988 0.999988 0.999986 0.315487 0.315498 0.315508 0.315513 0.315484 0.315483 0.315483 0.315483
          0.315534 0.317648 0.317782 0.318051 0.318461 0.319021 0.31974 0.320629 0.321695 0.322948 0.324479 0.327617
          0.346614 0.479493 0.999988 0.999988 0.999985 0.31548 0.315482 0.315486 0.315489 0.315483 0.315483 0.315483
          0.315483 0.315529 0.317465 0.317589 0.317837 0.318214 0.318729 0.31939 0.320203 0.321177 0.322317 0.323638
          0.325388 0.330787 0.370799 0.647521 0.999988 0.999989 0.315463 0.315464 0.315466 0.315467 0.315483 0.315483
          0.315483 0.315483 0.315523 0.317271 0.317384 0.317609 0.31795 0.318415 0.319009 0.31974 0.32061 0.321625
          0.322785 0.32412 0.32606 0.333408 0.38185 0.560083 0.396003 0.315443 0.315443 0.315444 0.315444 0.315482
          0.315483 0.315483 0.315483 0.315518 0.317071 0.317172 0.317373 0.317676 0.318088 0.318613 0.319255 0.320017
          0.320898 0.321894 0.323 0.324235 0.325993 0.331733 0.351097 0.333959 0.315419 0.315419 0.315419 0.31542
          0.315481 0.315483 0.315483 0.315483 0.315513 0.31687 0.316959 0.317135 0.317401 0.31776 0.318215 0.318769
          0.319421 0.320167 0.320998 0.321897 0.322828 0.323744 0.324762 0.326527 0.325608 0.315392 0.315392 0.315392
          0.315393 0.31548 0.315483 0.315483 0.315483 0.315507 0.316672 0.31675 0.316902 0.317131 0.31744 0.317828
          0.318298 0.318845 0.319465 0.320143 0.320857 0.321569 0.322221 0.322755 0.323152 0.323218 0.31536 0.31536
          0.315361 0.315361 0.315479 0.315483 0.315483 0.315483 0.315502 0.316481 0.316547 0.316678 0.316874 0.317136
          0.317464 0.317856 0.31831 0.318816 0.319361 0.319923 0.320469 0.320959 0.321347 0.321598 0.321681 0.315324
          0.315325 0.315325 0.315326 0.315478 0.315483 0.315483 0.315483 0.315497 0.316297 0.316355 0.316467 0.316634
          0.316856 0.317131 0.317457 0.317829 0.31824 0.318675 0.319117 0.319539 0.319911 0.320204 0.320392 0.320456
          0.315283 0.315284 0.315284 0.315285 0.315476 0.315483 0.315483 0.315483 0.315493 0.316124 0.316174 0.316272
          0.316416 0.316605 0.316836 0.317107 0.317413 0.317747 0.318096 0.318446 0.318775 0.319063 0.319287 0.31943
          0.319479 0.315236 0.315237 0.315238 0.315239 0.315474 0.315482 0.315483 0.315483 0.315488 0.315958 0.316006
          0.316095 0.316223 0.316386 0.316583 0.316812 0.317068 0.317343 0.317628 0.31791 0.318172 0.3184 0.318576
          0.318688 0.318726 0.315181 0.315183 0.31519 0.315187 0.315467 0.315476 0.315478 0.315479 0.315481 0.315795
          0.315848 0.315938 0.316056 0.316203 0.316376 0.316575 0.316795 0.31703 0.31727 0.317506 0.317723 0.317911
          0.318055 0.318146 0.318177 0.315115 0.31512 0.315134 0.315176 0.31521 0.315275 0.315341 0.315417 0.315514