<?xml version="1.0"?>
<VTKFile type="UnstructuredGrid" version="0.1" byte_order="LittleEndian">
  <UnstructuredGrid>
    <Piece NumberOfCells="384" NumberOfPoints="425">
      <PointData Scalars="pressure_l">
        <DataArray type="Float32" Name="pressure_l" NumberOfComponents="1" format="ascii">
          100023 100056 100013 100034 100072 100048 100081 100055 100005 100003 100002 100000
          100002 100000 100002 100000 100021 100018 100683 100650 100719 100687 100796 100764
          100916 100883 101084 101049 101304 101267 101583 101543 101926 101882 102339 102291
          102824 102771 103383 103323 104014 103942 104723 104626 105514 105387 106407 106812
          175782 169039 100008 100021 100031 100036 100002 100000 100000 100000 100016 100613
          100650 100724 100840 101001 101212 101479 101808 102203 102668 103202 103797 104425
          105024 105887 168164 100005 100013 100019 100022 100001 100000 100000 100000 100015
          100571 100607 100678 100788 100941 101141 101394 101706 102080 102521 103030 103599
          104203 104715 104201 165485 100004 100007 100011 100012 100001 100000 100000 100000
          100013 100526 100559 100626 100728 100871 101057 101291 101580 101926 102335 102810
          103355 103978 104702 105799 130720 100001 100002 100003 100004 100000 100000 100000
          100000 100012 100478 100508 100569 100663 100793 100962 101174 101435 101747 102115
          102544 103044 103647 104486 106333 102923 99995.5 99995.7 99996.3 99996.7 100000 100000
          100000 100000 100010 100428 100455 100510 100594 100709 100860 101048 101277 101551
          101871 102241 102666 103158 103724 103982 103921 99988.7 99988.8 99989 99989.3 99999.8
          100000 100000 100000 100009 100376 100400 100449 100523 100624 100755 100918 101115
          101348 101616 101921 102257 102610 102927 103121 103176 99980.9 99981 99981.1 99981.3
          99999.5 100000 100000 100000 100007 100325 100346 100388 100452 100539 100651 100789
          100954 101147 101366 101607 101861 102110 102320 102458 102505 99972.1 99972.1 99972.2
          99972.4 99999.2 100000 100000 100000 100006 100274 100293 100328 100383 100457 100550
          100665 100802 100958 101132 101318 101508 101686 101833 101930 101964 99962 99962.1
          99962.2 99962.4 99998.8 100000 100000 100000 100005 100226 100241 100272 100317 100379
          100457 100551 100662 100787 100923 101066 101207 101336 101441 101509 101533 99950.5
          99950.6 99950.7 99950.9 99998.4 100000 100000 100000 100003 100179 100192 100218 100256
          100308 100372 100449 100538 100637 100743 100852 100958 101053 101128 101177 101194
          99937.3 99937.4 99937.6 99937.8 99997.9 100000 100000 100000 100002 100134 100145 100168
          100200 100243 100297 100359 100431 100510 100593 100677 100757 100828 100884 100919
          100932 99922.2 99922.4 99922.8 99922.9 99997.2 99999.9 100000 100000 100001 100091 100101
          100121 100150 100187 100232 100284 100342 100406 100472 100538 100601 100655 100697
          100724 100733 99904.5 99905.2 99907 99905.7 99994.8 99997.8 99998.2 99998.5 99998.5 100047
          100060 100080 100106 100138 100177 100222 100272 100325 100380 100434 100484 100528
          100561 100583 100590 99883.6 99884.8 99889 99901 99909.1 99926.1 99942.1 99959.2 99979.8
          100001 100022 100043 100068 100098 100133 100174 100218 100265 100314 100361 100405
          100442 100471 100489 100495 99858.4 99859.9 99865.1 99873.8 99884.9 99898.7 99914.5 99931.6
          99950.3 99970.2 99990.5 100012 100037 100066 100100 100139 100182 100227 100273 100318
          100360 100395 100423 100440 100446
        </DataArray>
        <DataArray type="Float32" Name="pressure_g" NumberOfComponents="1" format="ascii">
          100023 100056 100013 100034 100072 100048 100081 100055 100005 100003 100002 100000
          100002 100000 100002 100000 100021 100018 100683 100650 100719 100687 100796 100764
          100916 100883 101084 101049 101304 101267 101583 101543 101926 101882 102339 102291
          102824 102771 103383 103323 104014 103942 104723 104626 105514 105387 106407 106812
          175782 169039 100008 100021 100031 100036 100002 100000 100000 100000 100016 100613
          100650 100724 100840 101001 101212 101479 101808 102203 102668 103202 103797 104425
          105024 105887 168164 100005 100013 100019 100022 100001 100000 100000 100000 100015
          100571 100607 100678 100788 100941 101141 101394 101706 102080 102521 103030 103599
          104203 104715 104201 165485 100004 100007 100011 100012 100001 100000 100000 100000
          100013 100526 100559 100626 100728 100871 101057 101291 101580 101926 102335 102810
          103355 103978 104702 105799 130720 100001 100002 100003 100004 100000 100000 100000
          100000 100012 100478 100508 100569 100663 100793 100962 101174 101435 101747 102115
          102544 103044 103647 104486 106333 102923 99995.5 99995.7 99996.3 99996.7 100000 100000
          100000 100000 100010 100428 100455 100510 100594 100709 100860 101048 101277 101551
          101871 102241 102666 103158 103724 103982 103921 99988.7 99988.8 99989 99989.3 99999.8
          100000 100000 100000 100009 100376 100400 100449 100523 100624 100755 100918 101115
          101348 101616 101921 102257 102610 102927 103121 103176 99980.9 99981 99981.1 99981.3
          99999.5 100000 100000 100000 100007 100325 100346 100388 100452 100539 100651 100789
          100954 101147 101366 101607 101861 102110 102320 102458 102505 99972.1 99972.1 99972.2
          99972.4 99999.2 100000 100000 100000 100006 100274 100293 100328 100383 100457 100550
          100665 100802 100958 101132 101318 101508 101686 101833 101930 101964 99962 99962.1
          99962.2 99962.4 99998.8 100000 100000 100000 100005 100226 100241 100272 100317 100379
          100457 100551 100662 100787 100923 101066 101207 101336 101441 101509 101533 99950.5
          99950.6 99950.7 99950.9 99998.4 100000 100000 100000 100003 100179 100192 100218 100256
          100308 100372 100449 100538 100637 100743 100852 100958 101053 101128 101177 101194
          99937.3 99937.4 99937.6 99937.8 99997.9 100000 100000 100000 100002 100134 100145 100168
          100200 100243 100297 100359 100431 100510 100593 100677 100757 100828 100884 100919
          100932 99922.2 99922.4 99922.8 99922.9 99997.2 99999.9 100000 100000 100001 100091 100101
          100121 100150 100187 100232 100284 100342 100406 100472 100538 100601 100655 100697
          100724 100733 99904.5 99905.2 99907 99905.7 99994.8 99997.8 99998.2 99998.5 99998.5 100047
          100060 100080 100106 100138 100177 100222 100272 100325 100380 100434 100484 100528
          100561 100583 100590 99883.6 99884.8 99889 99901 99909.1 99926.1 99942.1 99959.2 99979.8
          100001 100022 100043 100068 100098 100133 100174 100218 100265 100314 100361 100405
          100442 100471 100489 100495 99858.4 99859.9 99865.1 99873.8 99884.9 99898.7 99914.5 99931.6
          99950.3 99970.2 99990.5 100012 100037 100066 100100 100139 100182 100227 100273 100318
          100360 100395 100423 100440 100446
        </DataArray>
        <DataArray type="Float32" Name="density_l" NumberOfComponents="1" format="ascii">
          997.068 997.068 997.068 997.068 997.068 997.068 997.068 997.068 997.068 997.068 997.068 997.068
          997.068 997.068 997.068 997.068 997.068 997.068 997.068 997.068 997.068 997.068 997.068 997.068
          997.068 997.068 997.068 997.068 997.068 997.068 997.068 997.068 997.069 997.069 997.069 997.069
          997.069 997.069 997.069 997.069 997.068 997.068 997.062 997.062 997.057 997.057 997.057 997.057
          997.092 997.089 997.068 997.068 997.068 997.068 997.068 997.068 997.068 997.068 997.068 997.068
          997.068 997.068 997.068 997.068 997.068 997.068 997.069 997.069 997.069 997.069 997.068 997.063
          997.056 997.057 997.089 997.068 997.068 997.068 997.068 997.068 997.068 997.068 997.068 997.068
          997.068 997.068 997.068 997.068 997.068 997.068 997.068 997.069 997.069 997.069 997.069 997.068
          997.064 997.056 997.056 997.087 997.068 997.068 997.068 997.068 997.068 997.068 997.068 997.068
          997.068 997.068 997.068 997.068 997.068 997.068 997.068 997.068 997.068 997.069 997.069 997.069
          997.069 997.064 997.056 997.057 997.07 997.068 997.068 997.068 997.068 997.068 997.068 997.068
          997.068 997.068 997.068 997.068 997.068 997.068 997.068 997.068 997.068 997.068 997.069 997.069
          997.069 997.069 997.068 997.064 997.061 997.061 997.068 997.068 997.068 997.068 997.068 997.068
          997.068 997.068 997.068 997.068 997.068 997.068 997.068 997.068 997.068 997.068 997.068 997.068
          997.069 997.069 997.069 997.069 997.068 997.066 997.068 997.068 997.068 997.068 997.068 997.068
          997.068 997.068 997.068 997.068 997.068 997.068 997.068 997.068 997.068 997.068 997.068 997.068
          997.068 997.069 997.069 997.069 997.069 997.069 997.069 997.069 997.068 997.068 997.068 997.068
          997.068 997.068 997.068 997.068 997.068 997.068 997.068 997.068 997.068 997.068 997.068 997.068
          997.068 997.068 997.068 997.069 997.069 997.069 997.069 997.069 997.069 997.068 997.068 997.068
          997.068 997.068 997.068 997.068 997.068 997.068 997.068 997.068 997.068 997.068 997.068 997.068
          997.068 997.068 997.068 997.068 997.068 997.068 997.069 997.069 997.069 997.069 997.068 997.068
          997.068 997.068 997.068 997.068 997.068 997.068 997.068 997.068 997.068 997.068 997.068 997.068
          997.068 997.068 997.068 997.068 997.068 997.068 997.068 997.068 997.068 997.068 997.068 997.068
          997.068 997.068 997.068 997.068 997.068 997.068 997.068 997.068 997.068 997.068 997.068 997.068
          997.068 997.068 997.068 997.068 997.068 997.068 997.068 997.068 997.068 997.068 997.068 997.068
          997.068 997.068 997.068 997.068 997.068 997.068 997.068 997.068 997.068 997.068 997.068 997.068
          997.068 997.068 997.068 997.068 997.068 997.068 997.068 997.068 997.068 997.068 997.068 997.068
          997.068 997.068 997.068 997.068 997.068 997.068 997.068 997.068 997.068 997.068 997.068 997.068
          997.068 997.068 997.068 997.068 997.068 997.068 997.068 997.068 997.068 997.068 997.068 997.068
          997.068 997.068 997.068 997.068 997.068 997.068 997.068 997.068 997.068 997.068 997.068 997.068
          997.068 997.068 997.068 997.068 997.068 997.068 997.068 997.068 997.068 997.068 997.068 997.068
          997.068 997.068 997.068 997.068 997.068 997.068 997.068 997.068 997.068 997.068 997.068 997.068
          997.068 997.068 997.068 997.068 997.068 997.068 997.068 997.068 997.068 997.068 997.068 997.068
          997.068 997.068 997.068 997.068 997.068 997.068 997.068 997.068 997.068 997.068 997.068 997.068
          997.068 997.068 997.068 997.068 997.068 997.068 997.068 997.068 997.068 997.068 997.068 997.068
          997.068 997.068 997.068 997.068 997.068
        </DataArray>
        <DataArray type="Float32" Name="density_g" NumberOfComponents="1" format="ascii">
          1.12626 1.12663 1.12614 1.12639 1.12682 1.12655 1.12692 1.12662 1.12606 1.12603 1.12602 1.126
          1.12602 1.126 1.12602 1.12601 1.12623 1.1262 1.13369 1.13332 1.1341 1.13374 1.13497 1.13461
          1.13632 1.13595 1.13821 1.13782 1.14069 1.14027 1.14383 1.14338 1.14769 1.1472 1.15234 1.1518
          1.1578 1.1572 1.16406 1.16338 1.17084 1.17005 1.17641 1.17542 1.17961 1.17817 1.1897 1.19428
          1.97297 1.89711 1.12609 1.12624 1.12635 1.12641 1.12602 1.126 1.126 1.126 1.12619 1.1329
          1.13332 1.13416 1.13546 1.13728 1.13965 1.14266 1.14636 1.15081 1.15605 1.16203 1.16848 1.17366
          1.17408 1.18383 1.88707 1.12606 1.12615 1.12622 1.12625 1.12602 1.126 1.126 1.126 1.12617
          1.13244 1.13283 1.13364 1.13488 1.1366 1.13885 1.14171 1.14521 1.14943 1.15439 1.1601 1.16632
          1.17159 1.17058 1.16478 1.85631 1.12604 1.12608 1.12612 1.12614 1.12601 1.126 1.126 1.126
          1.12615 1.13193 1.1323 1.13305 1.13421 1.13581 1.1379 1.14054 1.14379 1.14769 1.1523 1.15763
          1.16364 1.1693 1.17044 1.18284 1.46445 1.12601 1.12602 1.12604 1.12605 1.12601 1.126 1.126
          1.126 1.12614 1.13138 1.13172 1.13241 1.13347 1.13493 1.13683 1.13923 1.14216 1.14567 1.14982
          1.15465 1.16026 1.16682 1.17497 1.19336 1.15629 1.12595 1.12595 1.12596 1.12597 1.126 1.126
          1.126 1.126 1.12612 1.13082 1.13112 1.13174 1.13269 1.13399 1.13568 1.1378 1.14039 1.14347
          1.14707 1.15124 1.15603 1.16154 1.16772 1.17003 1.16973 1.12588 1.12588 1.12588 1.12588 1.126
          1.126 1.126 1.126 1.1261 1.13024 1.13051 1.13105 1.13189 1.13303 1.1345 1.13634 1.13856
          1.14118 1.1442 1.14763 1.15141 1.1554 1.15894 1.16106 1.16171 1.12579 1.12579 1.12579 1.12579
          1.126 1.126 1.126 1.126 1.12609 1.12966 1.1299 1.13037 1.13109 1.13207 1.13333 1.13488
          1.13675 1.13892 1.14138 1.1441 1.14696 1.14976 1.15213 1.15368 1.15421 1.12569 1.12569 1.12569
          1.12569 1.12599 1.126 1.126 1.126 1.12607 1.12909 1.1293 1.1297 1.13031 1.13114 1.1322
          1.1335 1.13503 1.13679 1.13875 1.14085 1.14298 1.14499 1.14664 1.14773 1.14811 1.12558 1.12558
          1.12558 1.12558 1.12599 1.126 1.126 1.126 1.12606 1.12854 1.12872 1.12906 1.12958 1.13027
          1.13115 1.13221 1.13345 1.13486 1.1364 1.138 1.13959 1.14105 1.14223 1.143 1.14326 1.12545
          1.12545 1.12545 1.12545 1.12598 1.126 1.126 1.126 1.12604 1.12802 1.12816 1.12845 1.12889
          1.12947 1.13019 1.13106 1.13206 1.13317 1.13437 1.1356 1.13679 1.13786 1.13871 1.13926 1.13945
          1.1253 1.1253 1.1253 1.1253 1.12598 1.126 1.126 1.126 1.12603 1.12751 1.12764 1.12789
          1.12826 1.12874 1.12934 1.13005 1.13086 1.13174 1.13268 1.13363 1.13453 1.13533 1.13595 1.13636
          1.13649 1.12513 1.12513 1.12513 1.12513 1.12597 1.126 1.126 1.126 1.12601 1.12702 1.12714
          1.12737 1.12769 1.12811 1.12861 1.1292 1.12986 1.13057 1.13132 1.13207 1.13277 1.13338 1.13385
          1.13416 1.13426 1.12493 1.12494 1.12496 1.12494 1.12594 1.12598 1.12598 1.12599 1.12599 1.12654
          1.12668 1.1269 1.12719 1.12756 1.128 1.1285 1.12906 1.12966 1.13028 1.13089 1.13146 1.13195
          1.13232 1.13256 1.13265 1.12469 1.12471 1.12475 1.12489 1.12498 1.12517 1.12535 1.12554 1.12578
          1.12601 1.12625 1.12649 1.12677 1.12711 1.12751 1.12796 1.12846 1.12899 1.12954 1.13007 1.13056
          1.13098 1.13131 1.13151 1.13158 1.12441 1.12442 1.12448 1.12458 1.12471 1.12486 1.12504 1.12523
          1.12544 1.12567 1.1259 1.12614 1.12642 1.12675 1.12713 1.12757 1.12805 1.12856 1.12908 1.12959
          1.13006 1.13046 1.13076 1.13096 1.13102
        </DataArray>
        <DataArray type="Float32" Name="saturation_l" NumberOfComponents="1" format="ascii">
          0 0 0 0 0 0 0 0 0 0 0 0
          0 0 0 0 0 0 0 0 0 0 0 0
          0 0 0 0 0 0 0 0 0 0 0 0
          0 0 0 0 0 0 0 0 0.000680502 0.000649536 0.248294 0.20327
          1 1 0 0 0 0 0 0 0 0 0 0
          0 0 0 0 0 0 0 0 0 0 0 0
          0.000374533 0.19791 1 0 0 0 0 0 0 0 0 0
          0 0 0 0 0 0 0 0 0 0 0 0
          0 3.78572e-05 0.168982 1 0 0 0 0 0 0 0 0
          0 0 0 0 0 0 0 0 0 0 0 0
          0 0 8.46903e-05 0.0415192 0.98127 0 0 0 0 0 0 0
          0 0 0 0 0 0 0 0 0 0 0 0
          0 0 0 0 0 0 0 0 0 0 0 0
          0 0 0 0 0 0 0 0 0 0 0 0
          0 0 0 0 0 0 0 0 0 0 0 0
          0 0 0 0 0 0 0 0 0 0 0 0
          0 0 0 0 0 0 0 0 0 0 0 0
          0 0 0 0 0 0 0 0 0 0 0 0
          0 0 0 0 0 0 0 0 0 0 0 0
          0 0 0 0 0 0 0 0 0 0 0 0
          0 0 0 0 0 0 0 0 0 0 0 0
          0 0 0 0 0 0 0 0 0 0 0 0
          0 0 0 0 0 0 0 0 0 0 0 0
          0 0 0 0 0 0 0 0 0 0 0 0
          0 0 0 0 0 0 0 0 0 0 0 0
          0 0 0 0 0 0 0 0 0 0 0 0
          0 0 0 0 0 0 0 0 0 0 0 0
          0 0 0 0 0 0 0 0 0 0 0 0
          0 0 0 0 0 0 0 0 0 0 0 0
          0 0 0 0 0 0 0 0 0 0 0 0
          0 0 0 0 0 0 0 0 0 0 0 0
          0 0 0 0 0 0 0 0 0 0 0 0
          0 0 0 0 0 0 0 0 0 0 0 0
          0 0 0 0 0 0 0 0 0 0 0 0
          0 0 0 0 0 0 0 0 0 0 0 0
          0 0 0 0 0
        </DataArray>
        <DataArray type="Float32" Name="saturation_g" NumberOfComponents="1" format="ascii">
          1 1 1 1 1 1 1 1 1 1 1 1
          1 1 1 1 1 1 1 1 1 1 1 1
          1 1 1 1 1 1 1 1 1 1 1 1
          1 1 1 1 1 1 1 1 0.999319 0.99935 0.751706 0.79673
          0 0 1 1 1 1 1 1 1 1 1 1
          1 1 1 1 1 1 1 1 1 1 1 1
          0.999625 0.80209 0 1 1 1 1 1 1 1 1 1
          1 1 1 1 1 1 1 1 1 1 1 1
          1 0.999962 0.831018 0 1 1 1 1 1 1 1 1
          1 1 1 1 1 1 1 1 1 1 1 1
          1 1 0.999915 0.958481 0.0187296 1 1 1 1 1 1 1
          1 1 1 1 1 1 1 1 1 1 1 1
          1 1 1 1 1 1 1 1 1 1 1 1
          1 1 1 1 1 1 1 1 1 1 1 1
          1 1 1 1 1 1 1 1 1 1 1 1
          1 1 1 1 1 1 1 1 1 1 1 1
          1 1 1 1 1 1 1 1 1 1 1 1
          1 1 1 1 1 1 1 1 1 1 1 1
          1 1 1 1 1 1 1 1 1 1 1 1
          1 1 1 1 1 1 1 1 1 1 1 1
          1 1 1 1 1 1 1 1 1 1 1 1
          1 1 1 1 1 1 1 1 1 1 1 1
          1 1 1 1 1 1 1 1 1 1 1 1
          1 1 1 1 1 1 1 1 1 1 1 1
          1 1 1 1 1 1 1 1 1 1 1 1
          1 1 1 1 1 1 1 1 1 1 1 1
          1 1 1 1 1 1 1 1 1 1 1 1
          1 1 1 1 1 1 1 1 1 1 1 1
          1 1 1 1 1 1 1 1 1 1 1 1
          1 1 1 1 1 1 1 1 1 1 1 1
          1 1 1 1 1 1 1 1 1 1 1 1
          1 1 1 1 1 1 1 1 1 1 1 1
          1 1 1 1 1 1 1 1 1 1 1 1
          1 1 1 1 1 1 1 1 1 1 1 1
          1 1 1 1 1 1 1 1 1 1 1 1
          1 1 1 1 1
        </DataArray>
        <DataArray type="Float32" Name="relativePerm_l" NumberOfComponents="1" format="ascii">
          0 0 0 0 0 0 0 0 0 0 0 0
          0 0 0 0 0 0 0 0 0 0 0 0
          0 0 0 0 0 0 0 0 0 0 0 0
          0 0 0 0 0 0 0 0 0.000680502 0.000649536 0.248294 0.20327
          1 1 0 0 0 0 0 0 0 0 0 0
          0 0 0 0 0 0 0 0 0 0 0 0
          0.000374533 0.19791 1 0 0 0 0 0 0 0 0 0
          0 0 0 0 0 0 0 0 0 0 0 0
          0 3.78572e-05 0.168982 1 0 0 0 0 0 0 0 0
          0 0 0 0 0 0 0 0 0 0 0 0
          0 0 8.46903e-05 0.0415192 0.98127 0 0 0 0 0 0 0
          0 0 0 0 0 0 0 0 0 0 0 0
          0 0 0 0 0 0 0 0 0 0 0 0
          0 0 0 0 0 0 0 0 0 0 0 0
          0 0 0 0 0 0 0 0 0 0 0 0
          0 0 0 0 0 0 0 0 0 0 0 0
          0 0 0 0 0 0 0 0 0 0 0 0
          0 0 0 0 0 0 0 0 0 0 0 0
          0 0 0 0 0 0 0 0 0 0 0 0
          0 0 0 0 0 0 0 0 0 0 0 0
          0 0 0 0 0 0 0 0 0 0 0 0
          0 0 0 0 0 0 0 0 0 0 0 0
          0 0 0 0 0 0 0 0 0 0 0 0
          0 0 0 0 0 0 0 0 0 0 0 0
          0 0 0 0 0 0 0 0 0 0 0 0
          0 0 0 0 0 0 0 0 0 0 0 0
          0 0 0 0 0 0 0 0 0 0 0 0
          0 0 0 0 0 0 0 0 0 0 0 0
          0 0 0 0 0 0 0 0 0 0 0 0
          0 0 0 0 0 0 0 0 0 0 0 0
          0 0 0 0 0 0 0 0 0 0 0 0
          0 0 0 0 0 0 0 0 0 0 0 0
          0 0 0 0 0 0 0 0 0 0 0 0
          0 0 0 0 0 0 0 0 0 0 0 0
          0 0 0 0 0 0 0 0 0 0 0 0
          0 0 0 0 0
        </DataArray>
        <DataArray type="Float32" Name="relativePerm_g" NumberOfComponents="1" format="ascii">
          1 1 1 1 1 1 1 1 1 1 1 1
          1 1 1 1 1 1 1 1 1 1 1 1
          1 1 1 1 1 1 1 1 1 1 1 1
          1 1 1 1 1 1 1 1 0.999319 0.99935 0.751706 0.79673
          0 0 1 1 1 1 1 1 1 1 1 1
          1 1 1 1 1 1 1 1 1 1 1 1
          0.999625 0.80209 0 1 1 1 1 1 1 1 1 1
          1 1 1 1 1 1 1 1 1 1 1 1
          1 0.999962 0.831018 0 1 1 1 1 1 1 1 1
          1 1 1 1 1 1 1 1 1 1 1 1
          1 1 0.999915 0.958481 0.0187296 1 1 1 1 1 1 1
          1 1 1 1 1 1 1 1 1 1 1 1
          1 1 1 1 1 1 1 1 1 1 1 1
          1 1 1 1 1 1 1 1 1 1 1 1
          1 1 1 1 1 1 1 1 1 1 1 1
          1 1 1 1 1 1 1 1 1 1 1 1
          1 1 1 1 1 1 1 1 1 1 1 1
          1 1 1 1 1 1 1 1 1 1 1 1
          1 1 1 1 1 1 1 1 1 1 1 1
          1 1 1 1 1 1 1 1 1 1 1 1
          1 1 1 1 1 1 1 1 1 1 1 1
          1 1 1 1 1 1 1 1 1 1 1 1
          1 1 1 1 1 1 1 1 1 1 1 1
          1 1 1 1 1 1 1 1 1 1 1 1
          1 1 1 1 1 1 1 1 1 1 1 1
          1 1 1 1 1 1 1 1 1 1 1 1
          1 1 1 1 1 1 1 1 1 1 1 1
          1 1 1 1 1 1 1 1 1 1 1 1
          1 1 1 1 1 1 1 1 1 1 1 1
          1 1 1 1 1 1 1 1 1 1 1 1
          1 1 1 1 1 1 1 1 1 1 1 1
          1 1 1 1 1 1 1 1 1 1 1 1
          1 1 1 1 1 1 1 1 1 1 1 1
          1 1 1 1 1 1 1 1 1 1 1 1
          1 1 1 1 1 1 1 1 1 1 1 1
          1 1 1 1 1
        </DataArray>
        <DataArray type="Float32" Name="porosity" NumberOfComponents="1" format="ascii">
          0.3 0.3 0.3 0.3 0.3 0.3 0.3 0.3 0.3 0.3 0.3 0.3
          0.3 0.3 0.3 0.3 0.3 0.3 0.3 0.3 0.3 0.3 0.3 0.3
          0.3 0.3 0.3 0.3 0.3 0.3 0.3 0.3 0.3 0.3 0.3 0.3
          0.3 0.3 0.3 0.3 0.3 0.3 0.3 0.3 0.3 0.3 0.3 0.3
          0.3 0.3 0.3 0.3 0.3 0.3 0.3 0.3 0.3 0.3 0.3 0.3
          0.3 0.3 0.3 0.3 0.3 0.3 0.3 0.3 0.3 0.3 0.3 0.3
          0.3 0.3 0.3 0.3 0.3 0.3 0.3 0.3 0.3 0.3 0.3 0.3
          0.3 0.3 0.3 0.3 0.3 0.3 0.3 0.3 0.3 0.3 0.3 0.3
          0.3 0.3 0.3 0.3 0.3 0.3 0.3 0.3 0.3 0.3 0.3 0.3
          0.3 0.3 0.3 0.3 0.3 0.3 0.3 0.3 0.3 0.3 0.3 0.3
          0.3 0.3 0.3 0.3 0.3 0.3 0.3 0.3 0.3 0.3 0.3 0.3
          0.3 0.3 0.3 0.3 0.3 0.3 0.3 0.3 0.3 0.3 0.3 0.3
          0.3 0.3 0.3 0.3 0.3 0.3 0.3 0.3 0.3 0.3 0.3 0.3
          0.3 0.3 0.3 0.3 0.3 0.3 0.3 0.3 0.3 0.3 0.3 0.3
          0.3 0.3 0.3 0.3 0.3 0.3 0.3 0.3 0.3 0.3 0.3 0.3
          0.3 0.3 0.3 0.3 0.3 0.3 0.3 0.3 0.3 0.3 0.3 0.3
          0.3 0.3 0.3 0.3 0.3 0.3 0.3 0.3 0.3 0.3 0.3 0.3
          0.3 0.3 0.3 0.3 0.3 0.3 0.3 0.3 0.3 0.3 0.3 0.3
          0.3 0.3 0.3 0.3 0.3 0.3 0.3 0.3 0.3 0.3 0.3 0.3
          0.3 0.3 0.3 0.3 0.3 0.3 0.3 0.3 0.3 0.3 0.3 0.3
          0.3 0.3 0.3 0.3 0.3 0.3 0.3 0.3 0.3 0.3 0.3 0.3
          0.3 0.3 0.3 0.3 0.3 0.3 0.3 0.3 0.3 0.3 0.3 0.3
          0.3 0.3 0.3 0.3 0.3 0.3 0.3 0.3 0.3 0.3 0.3 0.3
          0.3 0.3 0.3 0.3 0.3 0.3 0.3 0.3 0.3 0.3 0.3 0.3
          0.3 0.3 0.3 0.3 0.3 0.3 0.3 0.3 0.3 0.3 0.3 0.3
          0.3 0.3 0.3 0.3 0.3 0.3 0.3 0.3 0.3 0.3 0.3 0.3
          0.3 0.3 0.3 0.3 0.3 0.3 0.3 0.3 0.3 0.3 0.3 0.3
          0.3 0.3 0.3 0.3 0.3 0.3 0.3 0.3 0.3 0.3 0.3 0.3
          0.3 0.3 0.3 0.3 0.3 0.3 0.3 0.3 0.3 0.3 0.3 0.3
          0.3 0.3 0.3 0.3 0.3 0.3 0.3 0.3 0.3 0.3 0.3 0.3
          0.3 0.3 0.3 0.3 0.3 0.3 0.3 0.3 0.3 0.3 0.3 0.3
          0.3 0.3 0.3 0.3 0.3 0.3 0.3 0.3 0.3 0.3 0.3 0.3
          0.3 0.3 0.3 0.3 0.3 0.3 0.3 0.3 0.3 0.3 0.3 0.3
          0.3 0.3 0.3 0.3 0.3 0.3 0.3 0.3 0.3 0.3 0.3 0.3
          0.3 0.3 0.3 0.3 0.3 0.3 0.3 0.3 0.3 0.3 0.3 0.3
          0.3 0.3 0.3 0.3 0.3
        </DataArray>
        <DataArray type="Float32" Name="temperature" NumberOfComponents="1" format="ascii">
          298.15 298.15 298.15 298.15 298.15 298.15 298.15 298.15 298.15 298.15 298.15 298.15
          298.15 298.15 298.15 298.15 298.15 298.15 298.15 298.15 298.15 298.15 298.15 298.15
          298.15 298.15 298.15 298.15 298.15 298.15 298.15 298.15 298.15 298.15 298.15 298.15
          298.15 298.15 298.15 298.15 298.15 298.15 298.15 298.15 298.15 298.15 298.15 298.15
          298.15 298.15 298.15 298.15 298.15 298.15 298.15 298.15 298.15 298.15 298.15 298.15
          298.15 298.15 298.15 298.15 298.15 298.15 298.15 298.15 298.15 298.15 298.15 298.15
          298.15 298.15 298.15 298.15 298.15 298.15 298.15 298.15 298.15 298.15 298.15 298.15
          298.15 298.15 298.15 298.15 298.15 298.15 298.15 298.15 298.15 298.15 298.15 298.15
          298.15 298.15 298.15 298.15 298.15 298.15 298.15 298.15 298.15 298.15 298.15 298.15
          298.15 298.15 298.15 298.15 298.15 298.15 298.15 298.15 298.15 298.15 298.15 298.15
          298.15 298.15 298.15 298.15 298.15 298.15 298.15 298.15 298.15 298.15 298.15 298.15
          298.15 298.15 298.15 298.15 298.15 298.15 298.15 298.15 298.15 298.15 298.15 298.15
          298.15 298.15 298.15 298.15 298.15 298.15 298.15 298.15 298.15 298.15 298.15 298.15
          298.15 298.15 298.15 298.15 298.15 298.15 298.15 298.15 298.15 298.15 298.15 298.15
          298.15 298.15 298.15 298.15 298.15 298.15 298.15 298.15 298.15 298.15 298.15 298.15
          298.15 298.15 298.15 298.15 298.15 298.15 298.15 298.15 298.15 298.15 298.15 298.15
          298.15 298.15 298.15 298.15 298.15 298.15 298.15 298.15 298.15 298.15 298.15 298.15
          298.15 298.15 298.15 298.15 298.15 298.15 298.15 298.15 298.15 298.15 298.15 298.15
          298.15 298.15 298.15 298.15 298.15 298.15 298.15 298.15 298.15 298.15 298.15 298.15
          298.15 298.15 298.15 298.15 298.15 298.15 298.15 298.15 298.15 298.15 298.15 298.15
          298.15 298.15 298.15 298.15 298.15 298.15 298.15 298.15 298.15 298.15 298.15 298.15
          298.15 298.15 298.15 298.15 298.15 298.15 298.15 298.15 298.15 298.15 298.15 298.15
          298.15 298.15 298.15 298.15 298.15 298.15 298.15 298.15 298.15 298.15 298.15 298.15
          298.15 298.15 298.15 298.15 298.15 298.15 298.15 298.15 298.15 298.15 298.15 298.15
          298.15 298.15 298.15 298.15 298.15 298.15 298.15 298.15 298.15 298.15 298.15 298.15
          298.15 298.15 298.15 298.15 298.15 298.15 298.15 298.15 298.15 298.15 298.15 298.15
          298.15 298.15 298.15 298.15 298.15 298.15 298.15 298.15 298.15 298.15 298.15 298.15
          298.15 298.15 298.15 298.15 298.15 298.15 298.15 298.15 298.15 298.15 298.15 298.15
          298.15 298.15 298.15 298.15 298.15 298.15 298.15 298.15 298.15 298.15 298.15 298.15
          298.15 298.15 298.15 298.15 298.15 298.15 298.15 298.15 298.15 298.15 298.15 298.15
          298.15 298.15 298.15 298.15 298.15 298.15 298.15 298.15 298.15 298.15 298.15 298.15
          298.15 298.15 298.15 298.15 298.15 298.15 298.15 298.15 298.15 298.15 298.15 298.15
          298.15 298.15 298.15 298.15 298.15 298.15 298.15 298.15 298.15 298.15 298.15 298.15
          298.15 298.15 298.15 298.15 298.15 298.15 298.15 298.15 298.15 298.15 298.15 298.15
          298.15 298.15 298.15 298.15 298.15 298.15 298.15 298.15 298.15 298.15 298.15 298.15
          298.15 298.15 298.15 298.15 298.15
        </DataArray>
        <DataArray type="Float32" Name="moleFrac_l^H2O" NumberOfComponents="1" format="ascii">
          0.315554 0.315658 0.315522 0.31559 0.31571 0.315635 0.315739 0.315655 0.315499 0.315492 0.315488 0.315483
          0.315488 0.315483 0.315488 0.315483 0.315547 0.315539 0.317637 0.317533 0.31775 0.317651 0.317994 0.317893
          0.318373 0.318269 0.318902 0.318792 0.319597 0.31948 0.320477 0.32035 0.32156 0.321422 0.322873 0.322719
          0.324593 0.324405 0.328933 0.328528 0.356901 0.35495 0.548707 0.540178 0.999988 0.999988 0.999988 0.999988
          0.999981 0.999981 0.315507 0.31555 0.315581 0.315596 0.315488 0.315483 0.315483 0.315483 0.315534 0.317416
          0.317532 0.317768 0.318133 0.318641 0.319307 0.32015 0.321187 0.322441 0.324038 0.327598 0.34926 0.500334
          0.999988 0.999988 0.999982 0.315498 0.315524 0.315544 0.315553 0.315486 0.315483 0.315483 0.315483 0.315529
          0.317285 0.317397 0.317622 0.317969 0.318451 0.319083 0.319882 0.320864 0.32205 0.323527 0.326474 0.343596
          0.465068 0.999988 0.999988 0.999983 0.315494 0.315506 0.315516 0.315521 0.315485 0.315483 0.315483 0.315483
          0.315524 0.317143 0.317247 0.317457 0.317781 0.31823 0.318816 0.319557 0.320466 0.321561 0.322889 0.325116
          0.337304 0.445716 0.999988 0.999988 0.999985 0.315486 0.315488 0.315493 0.315496 0.315484 0.315483 0.315483
          0.315483 0.31552 0.31699 0.317086 0.317278 0.317574 0.317983 0.318516 0.319187 0.320009 0.320994 0.322161
          0.323618 0.326811 0.34605 0.451067 0.646102 0.531531 0.315468 0.315469 0.315471 0.315472 0.315483 0.315483
          0.315483 0.315483 0.315515 0.316831 0.316917 0.31709 0.317355 0.317721 0.318195 0.318789 0.319512 0.320375
          0.321386 0.322563 0.324063 0.327603 0.344864 0.392197 0.361488 0.315447 0.315447 0.315448 0.315449 0.315482
          0.315483 0.315483 0.315483 0.315511 0.316669 0.316746 0.316898 0.317131 0.317451 0.317864 0.318378 0.319
          0.319734 0.320582 0.321543 0.322613 0.323881 0.326254 0.331584 0.330093 0.315422 0.315423 0.315423 0.315424
          0.315481 0.315483 0.315483 0.315483 0.315506 0.316508 0.316574 0.316706 0.316908 0.317182 0.317535 0.317971
          0.318493 0.319101 0.319792 0.320552 0.321354 0.322147 0.322892 0.323656 0.323759 0.315395 0.315395 0.315395
          0.315396 0.31548 0.315483 0.315483 0.315483 0.315502 0.316348 0.316406 0.316519 0.31669 0.316923 0.317219
          0.317582 0.318011 0.318505 0.319054 0.319642 0.32024 0.320802 0.32127 0.321591 0.321697 0.315363 0.315363
          0.315363 0.315364 0.315479 0.315483 0.315483 0.315483 0.315497 0.316194 0.316243 0.316339 0.316484 0.316678
          0.316924 0.317222 0.31757 0.317964 0.318394 0.318845 0.319291 0.319698 0.320029 0.320245 0.32032 0.315326
          0.315327 0.315327 0.315328 0.315478 0.315483 0.315483 0.315483 0.315493 0.316047 0.316088 0.31617 0.316291
          0.316453 0.316656 0.316899 0.317179 0.317491 0.317827 0.318171 0.318505 0.318804 0.319043 0.319197 0.31925
          0.315285 0.315285 0.315286 0.315286 0.315476 0.315483 0.315483 0.315483 0.315489 0.315905 0.315941 0.316011
          0.316115 0.31625 0.316418 0.316617 0.316843 0.317091 0.317353 0.317618 0.317871 0.318095 0.31827 0.318383
          0.318422 0.315237 0.315238 0.315239 0.315239 0.315474 0.315482 0.315483 0.315483 0.315485 0.315769 0.315802
          0.315866 0.315956 0.316072 0.316213 0.316378 0.316563 0.316764 0.316973 0.317181 0.317377 0.317549 0.317682
          0.317767 0.317796 0.315181 0.315184 0.315189 0.315185 0.315466 0.315476 0.315477 0.315478 0.315478 0.315632
          0.315671 0.315734 0.315816 0.315919 0.316041 0.316182 0.316339 0.316507 0.316681 0.316851 0.31701 0.317148
          0.317254 0.317321 0.317344 0.315115 0.315119 0.315132 0.31517 0.315196 0.315249 0.3153 0.315354 0.315419