<?xml version="1.0"?>
<VTKFile type="UnstructuredGrid" version="0.1" byte_order="LittleEndian">
  <UnstructuredGrid>
    <Piece NumberOfCells="384" NumberOfPoints="425">
      <PointData Scalars="pressure_liquid">
        <DataArray type="Float32" Name="pressure_liquid" NumberOfComponents="1" format="ascii">
          100012 100027 100006 100016 100035 100023 100038 100026 100005 100003 100002 100000
          100002 100000 100003 100002 100086 100083 101521 101500 101564 101543 101648 101626
          101774 101751 101944 101919 102161 102134 102428 102398 102750 102716 103134 103094
          103590 103542 104129 104071 104767 104697 105520 105436 106424 106327 109378 108764
          172885 169935 100004 100010 100015 100017 100002 100000 100000 100002 100080 101466
          101508 101589 101711 101874 102082 102336 102642 103004 103430 103930 104517 105207
          106011 108148 169067 100002 100006 100009 100011 100001 100000 100000 100002 100076
          101420 101460 101538 101654 101810 102007 102247 102534 102870 103262 103715 104239
          104847 105518 107156 166301 100001 100003 100005 100006 100001 100000 100000 100001
          100072 101364 101401 101474 101583 101729 101913 102135 102397 102702 103050 103445
          103886 104373 104890 105686 147028 99999.9 100000 100001 100002 100000 100000 100000
          100001 100068 101298 101333 101401 101502 101636 101804 102005 102241 102510 102812
          103144 103500 103867 104213 104470 104492 99997.4 99997.6 99997.9 99998.2 99999.9 100000
          100000 100001 100063 101226 101258 101320 101412 101534 101685 101865 102073 102307
          102564 102838 103120 103394 103631 103787 103801 99994.8 99994.9 99995.1 99995.2 99999.5
          100000 100000 100001 100058 101148 101178 101234 101318 101427 101562 101721 101902
          102103 102318 102542 102765 102973 103144 103254 103284 99992.4 99992.5 99992.6 99992.7
          99999.2 100000 100000 100001 100053 101069 101096 101147 101221 101319 101438 101578
          101734 101905 102086 102269 102446 102606 102734 102816 102843 99990.3 99990.4 99990.5
          99990.7 99998.9 100000 100000 100001 100047 100989 101013 101059 101126 101213 101319
          101440 101576 101721 101872 102022 102164 102290 102388 102451 102473 99988.7 99988.9
          99989.2 99989.4 99998.5 100000 100000 100001 100042 100910 100932 100974 101035 101113
          101206 101313 101430 101554 101680 101805 101920 102021 102099 102148 102165 99987.7
          99988 99988.7 99989.3 99998.2 99999.9 100000 100001 100038 100833 100854 100894 100950
          101020 101104 101198 101300 101406 101514 101618 101714 101796 101859 101899 101913
          99987.3 99987.9 99989.4 99990.8 99997.8 99999.9 100000 100001 100033 100759 100780 100819
          100872 100938 101014 101098 101188 101281 101374 101463 101544 101613 101665 101698
          101709 99987 99988.3 99991.7 99995.3 99997.5 100000 100000 100001 100029 100685 100710
          100751 100804 100867 100938 101015 101097 101180 101262 101340 101410 101469 101514
          101542 101552 99985.8 99988.4 99995.7 100006 99998.9 100004 100007 100011 100038 100608
          100644 100693 100748 100810 100878 100951 101026 101103 101178 101248 101311 101364
          101403 101428 101437 99981.6 99985.8 99999.7 100028 100088 100152 100224 100306 100401
          100515 100586 100647 100707 100770 100836 100906 100978 101051 101121 101187 101246
          101295 101332 101355 101363 99971.4 99976.2 99992 100023 100076 100139 100210 100291
          100383 100481 100557 100622 100683 100747 100813 100882 100953 101024 101093 101158
          101215 101263 101299 101321 101329
        </DataArray>
        <DataArray type="Float32" Name="pressure_gas" NumberOfComponents="1" format="ascii">
          100012 100027 100006 100016 100035 100023 100038 100026 100005 100003 100002 100000
          100002 100000 100003 100002 100086 100083 101521 101500 101564 101543 101648 101626
          101774 101751 101944 101919 102161 102134 102428 102398 102750 102716 103134 103094
          103590 103542 104129 104071 104767 104697 105520 105436 106424 106327 109378 108764
          172885 169935 100004 100010 100015 100017 100002 100000 100000 100002 100080 101466
          101508 101589 101711 101874 102082 102336 102642 103004 103430 103930 104517 105207
          106011 108148 169067 100002 100006 100009 100011 100001 100000 100000 100002 100076
          101420 101460 101538 101654 101810 102007 102247 102534 102870 103262 103715 104239
          104847 105518 107156 166301 100001 100003 100005 100006 100001 100000 100000 100001
          100072 101364 101401 101474 101583 101729 101913 102135 102397 102702 103050 103445
          103886 104373 104890 105686 147028 99999.9 100000 100001 100002 100000 100000 100000
          100001 100068 101298 101333 101401 101502 101636 101804 102005 102241 102510 102812
          103144 103500 103867 104213 104470 104492 99997.4 99997.6 99997.9 99998.2 99999.9 100000
          100000 100001 100063 101226 101258 101320 101412 101534 101685 101865 102073 102307
          102564 102838 103120 103394 103631 103787 103801 99994.8 99994.9 99995.1 99995.2 99999.5
          100000 100000 100001 100058 101148 101178 101234 101318 101427 101562 101721 101902
          102103 102318 102542 102765 102973 103144 103254 103284 99992.4 99992.5 99992.6 99992.7
          99999.2 100000 100000 100001 100053 101069 101096 101147 101221 101319 101438 101578
          101734 101905 102086 102269 102446 102606 102734 102816 102843 99990.3 99990.4 99990.5
          99990.7 99998.9 100000 100000 100001 100047 100989 101013 101059 101126 101213 101319
          101440 101576 101721 101872 102022 102164 102290 102388 102451 102473 99988.7 99988.9
          99989.2 99989.4 99998.5 100000 100000 100001 100042 100910 100932 100974 101035 101113
          101206 101313 101430 101554 101680 101805 101920 102021 102099 102148 102165 99987.7
          99988 99988.7 99989.3 99998.2 99999.9 100000 100001 100038 100833 100854 100894 100950
          101020 101104 101198 101300 101406 101514 101618 101714 101796 101859 101899 101913
          99987.3 99987.9 99989.4 99990.8 99997.8 99999.9 100000 100001 100033 100759 100780 100819
          100872 100938 101014 101098 101188 101281 101374 101463 101544 101613 101665 101698
          101709 99987 99988.3 99991.7 99995.3 99997.5 100000 100000 100001 100029 100685 100710
          100751 100804 100867 100938 101015 101097 101180 101262 101340 101410 101469 101514
          101542 101552 99985.8 99988.4 99995.7 100006 99998.9 100004 100007 100011 100038 100608
          100644 100693 100748 100810 100878 100951 101026 101103 101178 101248 101311 101364
          101403 101428 101437 99981.6 99985.8 99999.7 100028 100088 100152 100224 100306 100401
          100515 100586 100647 100707 100770 100836 100906 100978 101051 101121 101187 101246
          101295 101332 101355 101363 99971.4 99976.2 99992 100023 100076 100139 100210 100291
          100383 100481 100557 100622 100683 100747 100813 100882 100953 101024 101093 101158
          101215 101263 101299 101321 101329
        </DataArray>
        <DataArray type="Float32" Name="density_liquid" NumberOfComponents="1" format="ascii">
          997.068 997.068 997.068 997.068 997.068 997.068 997.068 997.068 997.068 997.068 997.068 997.068
          997.068 997.068 997.068 997.068 997.068 997.068 997.068 997.068 997.068 997.068 997.069 997.069
          997.069 997.069 997.069 997.069 997.069 997.069 997.069 997.069 997.069 997.069 997.069 997.069
          997.069 997.069 997.068 997.068 997.064 997.064 997.057 997.057 997.057 997.057 997.059 997.058
          997.086 997.084 997.068 997.068 997.068 997.068 997.068 997.068 997.068 997.068 997.068 997.068
          997.068 997.068 997.069 997.069 997.069 997.069 997.069 997.069 997.069 997.069 997.064 997.057
          997.057 997.058 997.084 997.068 997.068 997.068 997.068 997.068 997.068 997.068 997.068 997.068
          997.068 997.068 997.068 997.069 997.069 997.069 997.069 997.069 997.069 997.069 997.069 997.065
          997.057 997.057 997.058 997.082 997.068 997.068 997.068 997.068 997.068 997.068 997.068 997.068
          997.068 997.068 997.068 997.068 997.068 997.069 997.069 997.069 997.069 997.069 997.069 997.069
          997.067 997.06 997.056 997.057 997.075 997.068 997.068 997.068 997.068 997.068 997.068 997.068
          997.068 997.068 997.068 997.068 997.068 997.068 997.069 997.069 997.069 997.069 997.069 997.069
          997.069 997.069 997.067 997.061 997.056 997.056 997.068 997.068 997.068 997.068 997.068 997.068
          997.068 997.068 997.068 997.068 997.068 997.068 997.068 997.068 997.069 997.069 997.069 997.069
          997.069 997.069 997.069 997.069 997.067 997.064 997.063 997.068 997.068 997.068 997.068 997.068
          997.068 997.068 997.068 997.068 997.068 997.068 997.068 997.068 997.068 997.068 997.069 997.069
          997.069 997.069 997.069 997.069 997.069 997.069 997.068 997.068 997.068 997.068 997.068 997.068
          997.068 997.068 997.068 997.068 997.068 997.068 997.068 997.068 997.068 997.068 997.068 997.068
          997.069 997.069 997.069 997.069 997.069 997.069 997.069 997.069 997.069 997.068 997.068 997.068
          997.068 997.068 997.068 997.068 997.068 997.068 997.068 997.068 997.068 997.068 997.068 997.068
          997.068 997.068 997.069 997.069 997.069 997.069 997.069 997.069 997.069 997.069 997.068 997.068
          997.068 997.068 997.068 997.068 997.068 997.068 997.068 997.068 997.068 997.068 997.068 997.068
          997.068 997.068 997.068 997.068 997.069 997.069 997.069 997.069 997.069 997.069 997.069 997.068
          997.068 997.068 997.068 997.068 997.068 997.068 997.068 997.068 997.068 997.068 997.068 997.068
          997.068 997.068 997.068 997.068 997.068 997.068 997.069 997.069 997.069 997.069 997.069 997.069
          997.068 997.068 997.068 997.068 997.068 997.068 997.068 997.068 997.068 997.068 997.068 997.068
          997.068 997.068 997.068 997.068 997.068 997.068 997.068 997.068 997.068 997.069 997.069 997.069
          997.069 997.068 997.068 997.068 997.068 997.068 997.068 997.068 997.068 997.068 997.068 997.068
          997.068 997.068 997.068 997.068 997.068 997.068 997.068 997.068 997.068 997.068 997.068 997.068
          997.068 997.068 997.068 997.068 997.068 997.068 997.068 997.068 997.068 997.068 997.068 997.068
          997.068 997.068 997.068 997.068 997.068 997.068 997.068 997.068 997.068 997.068 997.068 997.068
          997.068 997.068 997.068 997.068 997.068 997.068 997.068 997.068 997.068 997.068 997.068 997.068
          997.068 997.068 997.068 997.068 997.068 997.068 997.068 997.068 997.068 997.068 997.068 997.068
          997.068 997.068 997.068 997.068 997.068 997.068 997.068 997.068 997.068 997.068 997.068 997.068
          997.068 997.068 997.068 997.068 997.068 997.068 997.068 997.068 997.068 997.068 997.068 997.068
          997.068 997.068 997.068 997.068 997.068
        </DataArray>
        <DataArray type="Float32" Name="density_gas" NumberOfComponents="1" format="ascii">
          1.12613 1.1263 1.12607 1.12619 1.12639 1.12626 1.12643 1.1263 1.12606 1.12603 1.12602 1.126
          1.12602 1.126 1.12604 1.12602 1.12697 1.12693 1.14312 1.14289 1.14361 1.14337 1.14456 1.14431
          1.14598 1.14572 1.1479 1.14762 1.15034 1.15003 1.15334 1.153 1.15697 1.15658 1.16129 1.16084
          1.1664 1.16586 1.17222 1.1716 1.1778 1.17712 1.17968 1.17872 1.18989 1.1888 1.22328 1.21633
          1.92861 1.89443 1.12604 1.12612 1.12617 1.1262 1.12602 1.126 1.126 1.12602 1.1269 1.14251
          1.14298 1.14389 1.14526 1.14711 1.14944 1.15231 1.15575 1.15983 1.16461 1.17005 1.17531 1.17614
          1.18523 1.20938 1.88364 1.12603 1.12607 1.1261 1.12612 1.12602 1.126 1.126 1.12602 1.12686
          1.14199 1.14244 1.14332 1.14463 1.14638 1.1486 1.15131 1.15453 1.15832 1.16272 1.1677 1.17257
          1.17273 1.17966 1.19816 1.84924 1.12602 1.12604 1.12606 1.12607 1.12601 1.126 1.126 1.12602
          1.12682 1.14136 1.14178 1.14261 1.14383 1.14547 1.14754 1.15004 1.153 1.15643 1.16035 1.16474
          1.16926 1.17175 1.17256 1.18155 1.64223 1.126 1.12601 1.12602 1.12602 1.126 1.126 1.126
          1.12602 1.12677 1.14062 1.14101 1.14178 1.14291 1.14442 1.14631 1.14858 1.15124 1.15427 1.15767
          1.1614 1.16532 1.16884 1.17042 1.16781 1.16806 1.12597 1.12598 1.12598 1.12598 1.126 1.126
          1.126 1.12602 1.12671 1.1398 1.14017 1.14087 1.1419 1.14328 1.14498 1.14701 1.14935 1.15198
          1.15487 1.15795 1.16112 1.16411 1.16634 1.16695 1.16669 1.12594 1.12595 1.12595 1.12595 1.126
          1.126 1.126 1.12602 1.12665 1.13894 1.13927 1.1399 1.14084 1.14207 1.14359 1.14538 1.14742
          1.14968 1.15211 1.15463 1.15714 1.15946 1.16134 1.16242 1.16267 1.12592 1.12592 1.12592 1.12592
          1.12599 1.126 1.126 1.12601 1.12659 1.13804 1.13834 1.13891 1.13976 1.14086 1.1422 1.14377
          1.14553 1.14746 1.14949 1.15155 1.15354 1.15534 1.15678 1.15769 1.15798 1.12589 1.12589 1.1259
          1.1259 1.12599 1.126 1.126 1.12601 1.12654 1.13714 1.13741 1.13793 1.13869 1.13967 1.14085
          1.14222 1.14374 1.14538 1.14708 1.14877 1.15037 1.15178 1.1529 1.1536 1.15384 1.12588 1.12588
          1.12588 1.12588 1.12599 1.126 1.126 1.12601 1.12648 1.13625 1.1365 1.13697 1.13766 1.13854
          1.13959 1.14078 1.1421 1.1435 1.14492 1.14632 1.14763 1.14876 1.14964 1.15019 1.15038 1.12586
          1.12587 1.12588 1.12588 1.12598 1.126 1.126 1.12601 1.12643 1.13538 1.13562 1.13607 1.1367
          1.13749 1.13843 1.13949 1.14064 1.14184 1.14305 1.14423 1.1453 1.14623 1.14694 1.14739 1.14754
          1.12586 1.12587 1.12588 1.1259 1.12598 1.126 1.126 1.12601 1.12638 1.13454 1.13479 1.13522
          1.13582 1.13656 1.13742 1.13837 1.13938 1.14043 1.14148 1.14248 1.14339 1.14417 1.14475 1.14512
          1.14525 1.12586 1.12587 1.12591 1.12595 1.12597 1.126 1.126 1.12601 1.12633 1.13372 1.134
          1.13446 1.13506 1.13577 1.13656 1.13743 1.13835 1.13929 1.14021 1.14109 1.14188 1.14255 1.14305
          1.14337 1.14347 1.12584 1.12587 1.12595 1.12606 1.12599 1.12605 1.12608 1.12613 1.12643 1.13285
          1.13326 1.1338 1.13443 1.13513 1.13589 1.13671 1.13756 1.13842 1.13926 1.14006 1.14076 1.14136
          1.14181 1.14208 1.14218 1.1258 1.12584 1.126 1.12632 1.127 1.12772 1.12852 1.12944 1.13051
          1.1318 1.1326 1.13329 1.13396 1.13467 1.13542 1.13621 1.13702 1.13783 1.13863 1.13937 1.14003
          1.14059 1.141 1.14126 1.14135 1.12568 1.12573 1.12591 1.12626 1.12686 1.12757 1.12837 1.12928
          1.13031 1.13142 1.13228 1.133 1.1337 1.13441 1.13515 1.13593 1.13673 1.13753 1.13831 1.13904
          1.13968 1.14022 1.14063 1.14088 1.14096
        </DataArray>
        <DataArray type="Float32" Name="saturation_liquid" NumberOfComponents="1" format="ascii">
          0 0 0 0 0 0 0 0 0 0 0 0
          0 0 0 0 0 0 0 0 0 0 0 0
          0 0 0 0 0 0 0 0 0 0 0 0
          0 0 0 0 0 0 1.50211e-05 7.7384e-06 0.00809877 0.00569592 0.66034 0.562085
          1 1 0 0 0 0 0 0 0 0 0 0
          0 0 0 0 0 0 0 0 0 0 0 4.36536e-06
          0.00503519 0.55635 1 0 0 0 0 0 0 0 0 0
          0 0 0 0 0 0 0 0 0 0 0 0
          0 0.00364953 0.518212 1 0 0 0 0 0 0 0 0
          0 0 0 0 0 0 0 0 0 0 0 0
          0 0 0.000896043 0.280728 1 0 0 0 0 0 0 0
          0 0 0 0 0 0 0 0 0 0 0 0
          0 0 0 0 3.5162e-06 0.200138 0 0 0 0 0 0
          0 0 0 0 0 0 0 0 0 0 0 0
          0 0 0 0 0 0 0 0 0 0 0 0
          0 0 0 0 0 0 0 0 0 0 0 0
          0 0 0 0 0 0 0 0 0 0 0 0
          0 0 0 0 0 0 0 0 0 0 0 0
          0 0 0 0 0 0 0 0 0 0 0 0
          0 0 0 0 0 0 0 0 0 0 0 0
          0 0 0 0 0 0 0 0 0 0 0 0
          0 0 0 0 0 0 0 0 0 0 0 0
          0 0 0 0 0 0 0 0 0 0 0 0
          0 0 0 0 0 0 0 0 0 0 0 0
          0 0 0 0 0 0 0 0 0 0 0 0
          0 0 0 0 0 0 0 0 0 0 0 0
          0 0 0 0 0 0 0 0 0 0 0 0
          0 0 0 0 0 0 0 0 0 0 0 0
          0 0 0 0 0 0 0 0 0 0 0 0
          0 0 0 0 0 0 0 0 0 0 0 0
          0 0 0 0 0 0 0 0 0 0 0 0
          0 0 0 0 0 0 0 0 0 0 0 0
          0 0 0 0 0 0 0 0 0 0 0 0
          0 0 0 0 0 0 0 0 0 0 0 0
          0 0 0 0 0 0 0 0 0 0 0 0
          0 0 0 0 0
        </DataArray>
        <DataArray type="Float32" Name="saturation_gas" NumberOfComponents="1" format="ascii">
          1 1 1 1 1 1 1 1 1 1 1 1
          1 1 1 1 1 1 1 1 1 1 1 1
          1 1 1 1 1 1 1 1 1 1 1 1
          1 1 1 1 1 1 0.999985 0.999992 0.991901 0.994304 0.33966 0.437915
          0 0 1 1 1 1 1 1 1 1 1 1
          1 1 1 1 1 1 1 1 1 1 1 0.999996
          0.994965 0.44365 0 1 1 1 1 1 1 1 1 1
          1 1 1 1 1 1 1 1 1 1 1 1
          1 0.99635 0.481788 0 1 1 1 1 1 1 1 1
          1 1 1 1 1 1 1 1 1 1 1 1
          1 1 0.999104 0.719272 0 1 1 1 1 1 1 1
          1 1 1 1 1 1 1 1 1 1 1 1
          1 1 1 1 0.999996 0.799862 1 1 1 1 1 1
          1 1 1 1 1 1 1 1 1 1 1 1
          1 1 1 1 1 1 1 1 1 1 1 1
          1 1 1 1 1 1 1 1 1 1 1 1
          1 1 1 1 1 1 1 1 1 1 1 1
          1 1 1 1 1 1 1 1 1 1 1 1
          1 1 1 1 1 1 1 1 1 1 1 1
          1 1 1 1 1 1 1 1 1 1 1 1
          1 1 1 1 1 1 1 1 1 1 1 1
          1 1 1 1 1 1 1 1 1 1 1 1
          1 1 1 1 1 1 1 1 1 1 1 1
          1 1 1 1 1 1 1 1 1 1 1 1
          1 1 1 1 1 1 1 1 1 1 1 1
          1 1 1 1 1 1 1 1 1 1 1 1
          1 1 1 1 1 1 1 1 1 1 1 1
          1 1 1 1 1 1 1 1 1 1 1 1
          1 1 1 1 1 1 1 1 1 1 1 1
          1 1 1 1 1 1 1 1 1 1 1 1
          1 1 1 1 1 1 1 1 1 1 1 1
          1 1 1 1 1 1 1 1 1 1 1 1
          1 1 1 1 1 1 1 1 1 1 1 1
          1 1 1 1 1 1 1 1 1 1 1 1
          1 1 1 1 1 1 1 1 1 1 1 1
          1 1 1 1 1
        </DataArray>
        <DataArray type="Float32" Name="relativePerm_liquid" NumberOfComponents="1" format="ascii">
          0 0 0 0 0 0 0 0 0 0 0 0
          0 0 0 0 0 0 0 0 0 0 0 0
          0 0 0 0 0 0 0 0 0 0 0 0
          0 0 0 0 0 0 1.50211e-05 7.7384e-06 0.00809877 0.00569592 0.66034 0.562085
          1 1 0 0 0 0 0 0 0 0 0 0
          0 0 0 0 0 0 0 0 0 0 0 4.36536e-06
          0.00503519 0.55635 1 0 0 0 0 0 0 0 0 0
          0 0 0 0 0 0 0 0 0 0 0 0
          0 0.00364953 0.518212 1 0 0 0 0 0 0 0 0
          0 0 0 0 0 0 0 0 0 0 0 0
          0 0 0.000896043 0.280728 1 0 0 0 0 0 0 0
          0 0 0 0 0 0 0 0 0 0 0 0
          0 0 0 0 3.5162e-06 0.200138 0 0 0 0 0 0
          0 0 0 0 0 0 0 0 0 0 0 0
          0 0 0 0 0 0 0 0 0 0 0 0
          0 0 0 0 0 0 0 0 0 0 0 0
          0 0 0 0 0 0 0 0 0 0 0 0
          0 0 0 0 0 0 0 0 0 0 0 0
          0 0 0 0 0 0 0 0 0 0 0 0
          0 0 0 0 0 0 0 0 0 0 0 0
          0 0 0 0 0 0 0 0 0 0 0 0
          0 0 0 0 0 0 0 0 0 0 0 0
          0 0 0 0 0 0 0 0 0 0 0 0
          0 0 0 0 0 0 0 0 0 0 0 0
          0 0 0 0 0 0 0 0 0 0 0 0
          0 0 0 0 0 0 0 0 0 0 0 0
          0 0 0 0 0 0 0 0 0 0 0 0
          0 0 0 0 0 0 0 0 0 0 0 0
          0 0 0 0 0 0 0 0 0 0 0 0
          0 0 0 0 0 0 0 0 0 0 0 0
          0 0 0 0 0 0 0 0 0 0 0 0
          0 0 0 0 0 0 0 0 0 0 0 0
          0 0 0 0 0 0 0 0 0 0 0 0
          0 0 0 0 0 0 0 0 0 0 0 0
          0 0 0 0 0 0 0 0 0 0 0 0
          0 0 0 0 0
        </DataArray>
        <DataArray type="Float32" Name="relativePerm_gas" NumberOfComponents="1" format="ascii">
          1 1 1 1 1 1 1 1 1 1 1 1
          1 1 1 1 1 1 1 1 1 1 1 1
          1 1 1 1 1 1 1 1 1 1 1 1
          1 1 1 1 1 1 0.999985 0.999992 0.991901 0.994304 0.33966 0.437915
          0 0 1 1 1 1 1 1 1 1 1 1
          1 1 1 1 1 1 1 1 1 1 1 0.999996
          0.994965 0.44365 0 1 1 1 1 1 1 1 1 1
          1 1 1 1 1 1 1 1 1 1 1 1
          1 0.99635 0.481788 0 1 1 1 1 1 1 1 1
          1 1 1 1 1 1 1 1 1 1 1 1
          1 1 0.999104 0.719272 0 1 1 1 1 1 1 1
          1 1 1 1 1 1 1 1 1 1 1 1
          1 1 1 1 0.999996 0.799862 1 1 1 1 1 1
          1 1 1 1 1 1 1 1 1 1 1 1
          1 1 1 1 1 1 1 1 1 1 1 1
          1 1 1 1 1 1 1 1 1 1 1 1
          1 1 1 1 1 1 1 1 1 1 1 1
          1 1 1 1 1 1 1 1 1 1 1 1
          1 1 1 1 1 1 1 1 1 1 1 1
          1 1 1 1 1 1 1 1 1 1 1 1
          1 1 1 1 1 1 1 1 1 1 1 1
          1 1 1 1 1 1 1 1 1 1 1 1
          1 1 1 1 1 1 1 1 1 1 1 1
          1 1 1 1 1 1 1 1 1 1 1 1
          1 1 1 1 1 1 1 1 1 1 1 1
          1 1 1 1 1 1 1 1 1 1 1 1
          1 1 1 1 1 1 1 1 1 1 1 1
          1 1 1 1 1 1 1 1 1 1 1 1
          1 1 1 1 1 1 1 1 1 1 1 1
          1 1 1 1 1 1 1 1 1 1 1 1
          1 1 1 1 1 1 1 1 1 1 1 1
          1 1 1 1 1 1 1 1 1 1 1 1
          1 1 1 1 1 1 1 1 1 1 1 1
          1 1 1 1 1 1 1 1 1 1 1 1
          1 1 1 1 1 1 1 1 1 1 1 1
          1 1 1 1 1
        </DataArray>
        <DataArray type="Float32" Name="porosity" NumberOfComponents="1" format="ascii">
          0.3 0.3 0.3 0.3 0.3 0.3 0.3 0.3 0.3 0.3 0.3 0.3
          0.3 0.3 0.3 0.3 0.3 0.3 0.3 0.3 0.3 0.3 0.3 0.3
          0.3 0.3 0.3 0.3 0.3 0.3 0.3 0.3 0.3 0.3 0.3 0.3
          0.3 0.3 0.3 0.3 0.3 0.3 0.3 0.3 0.3 0.3 0.3 0.3
          0.3 0.3 0.3 0.3 0.3 0.3 0.3 0.3 0.3 0.3 0.3 0.3
          0.3 0.3 0.3 0.3 0.3 0.3 0.3 0.3 0.3 0.3 0.3 0.3
          0.3 0.3 0.3 0.3 0.3 0.3 0.3 0.3 0.3 0.3 0.3 0.3
          0.3 0.3 0.3 0.3 0.3 0.3 0.3 0.3 0.3 0.3 0.3 0.3
          0.3 0.3 0.3 0.3 0.3 0.3 0.3 0.3 0.3 0.3 0.3 0.3
          0.3 0.3 0.3 0.3 0.3 0.3 0.3 0.3 0.3 0.3 0.3 0.3
          0.3 0.3 0.3 0.3 0.3 0.3 0.3 0.3 0.3 0.3 0.3 0.3
          0.3 0.3 0.3 0.3 0.3 0.3 0.3 0.3 0.3 0.3 0.3 0.3
          0.3 0.3 0.3 0.3 0.3 0.3 0.3 0.3 0.3 0.3 0.3 0.3
          0.3 0.3 0.3 0.3 0.3 0.3 0.3 0.3 0.3 0.3 0.3 0.3
          0.3 0.3 0.3 0.3 0.3 0.3 0.3 0.3 0.3 0.3 0.3 0.3
          0.3 0.3 0.3 0.3 0.3 0.3 0.3 0.3 0.3 0.3 0.3 0.3
          0.3 0.3 0.3 0.3 0.3 0.3 0.3 0.3 0.3 0.3 0.3 0.3
          0.3 0.3 0.3 0.3 0.3 0.3 0.3 0.3 0.3 0.3 0.3 0.3
          0.3 0.3 0.3 0.3 0.3 0.3 0.3 0.3 0.3 0.3 0.3 0.3
          0.3 0.3 0.3 0.3 0.3 0.3 0.3 0.3 0.3 0.3 0.3 0.3
          0.3 0.3 0.3 0.3 0.3 0.3 0.3 0.3 0.3 0.3 0.3 0.3
          0.3 0.3 0.3 0.3 0.3 0.3 0.3 0.3 0.3 0.3 0.3 0.3
          0.3 0.3 0.3 0.3 0.3 0.3 0.3 0.3 0.3 0.3 0.3 0.3
          0.3 0.3 0.3 0.3 0.3 0.3 0.3 0.3 0.3 0.3 0.3 0.3
          0.3 0.3 0.3 0.3 0.3 0.3 0.3 0.3 0.3 0.3 0.3 0.3
          0.3 0.3 0.3 0.3 0.3 0.3 0.3 0.3 0.3 0.3 0.3 0.3
          0.3 0.3 0.3 0.3 0.3 0.3 0.3 0.3 0.3 0.3 0.3 0.3
          0.3 0.3 0.3 0.3 0.3 0.3 0.3 0.3 0.3 0.3 0.3 0.3
          0.3 0.3 0.3 0.3 0.3 0.3 0.3 0.3 0.3 0.3 0.3 0.3
          0.3 0.3 0.3 0.3 0.3 0.3 0.3 0.3 0.3 0.3 0.3 0.3
          0.3 0.3 0.3 0.3 0.3 0.3 0.3 0.3 0.3 0.3 0.3 0.3
          0.3 0.3 0.3 0.3 0.3 0.3 0.3 0.3 0.3 0.3 0.3 0.3
          0.3 0.3 0.3 0.3 0.3 0.3 0.3 0.3 0.3 0.3 0.3 0.3
          0.3 0.3 0.3 0.3 0.3 0.3 0.3 0.3 0.3 0.3 0.3 0.3
          0.3 0.3 0.3 0.3 0.3 0.3 0.3 0.3 0.3 0.3 0.3 0.3
          0.3 0.3 0.3 0.3 0.3
        </DataArray>
        <DataArray type="Float32" Name="temperature" NumberOfComponents="1" format="ascii">
          298.15 298.15 298.15 298.15 298.15 298.15 298.15 298.15 298.15 298.15 298.15 298.15
          298.15 298.15 298.15 298.15 298.15 298.15 298.15 298.15 298.15 298.15 298.15 298.15
          298.15 298.15 298.15 298.15 298.15 298.15 298.15 298.15 298.15 298.15 298.15 298.15
          298.15 298.15 298.15 298.15 298.15 298.15 298.15 298.15 298.15 298.15 298.15 298.15
          298.15 298.15 298.15 298.15 298.15 298.15 298.15 298.15 298.15 298.15 298.15 298.15
          298.15 298.15 298.15 298.15 298.15 298.15 298.15 298.15 298.15 298.15 298.15 298.15
          298.15 298.15 298.15 298.15 298.15 298.15 298.15 298.15 298.15 298.15 298.15 298.15
          298.15 298.15 298.15 298.15 298.15 298.15 298.15 298.15 298.15 298.15 298.15 298.15
          298.15 298.15 298.15 298.15 298.15 298.15 298.15 298.15 298.15 298.15 298.15 298.15
          298.15 298.15 298.15 298.15 298.15 298.15 298.15 298.15 298.15 298.15 298.15 298.15
          298.15 298.15 298.15 298.15 298.15 298.15 298.15 298.15 298.15 298.15 298.15 298.15
          298.15 298.15 298.15 298.15 298.15 298.15 298.15 298.15 298.15 298.15 298.15 298.15
          298.15 298.15 298.15 298.15 298.15 298.15 298.15 298.15 298.15 298.15 298.15 298.15
          298.15 298.15 298.15 298.15 298.15 298.15 298.15 298.15 298.15 298.15 298.15 298.15
          298.15 298.15 298.15 298.15 298.15 298.15 298.15 298.15 298.15 298.15 298.15 298.15
          298.15 298.15 298.15 298.15 298.15 298.15 298.15 298.15 298.15 298.15 298.15 298.15
          298.15 298.15 298.15 298.15 298.15 298.15 298.15 298.15 298.15 298.15 298.15 298.15
          298.15 298.15 298.15 298.15 298.15 298.15 298.15 298.15 298.15 298.15 298.15 298.15
          298.15 298.15 298.15 298.15 298.15 298.15 298.15 298.15 298.15 298.15 298.15 298.15
          298.15 298.15 298.15 298.15 298.15 298.15 298.15 298.15 298.15 298.15 298.15 298.15
          298.15 298.15 298.15 298.15 298.15 298.15 298.15 298.15 298.15 298.15 298.15 298.15
          298.15 298.15 298.15 298.15 298.15 298.15 298.15 298.15 298.15 298.15 298.15 298.15
          298.15 298.15 298.15 298.15 298.15 298.15 298.15 298.15 298.15 298.15 298.15 298.15
          298.15 298.15 298.15 298.15 298.15 298.15 298.15 298.15 298.15 298.15 298.15 298.15
          298.15 298.15 298.15 298.15 298.15 298.15 298.15 298.15 298.15 298.15 298.15 298.15
          298.15 298.15 298.15 298.15 298.15 298.15 298.15 298.15 298.15 298.15 298.15 298.15
          298.15 298.15 298.15 298.15 298.15 298.15 298.15 298.15 298.15 298.15 298.15 298.15
          298.15 298.15 298.15 298.15 298.15 298.15 298.15 298.15 298.15 298.15 298.15 298.15
          298.15 298.15 298.15 298.15 298.15 298.15 298.15 298.15 298.15 298.15 298.15 298.15
          298.15 298.15 298.15 298.15 298.15 298.15 298.15 298.15 298.15 298.15 298.15 298.15
          298.15 298.15 298.15 298.15 298.15 298.15 298.15 298.15 298.15 298.15 298.15 298.15
          298.15 298.15 298.15 298.15 298.15 298.15 298.15 298.15 298.15 298.15 298.15 298.15
          298.15 298.15 298.15 298.15 298.15 298.15 298.15 298.15 298.15 298.15 298.15 298.15
          298.15 298.15 298.15 298.15 298.15 298.15 298.15 298.15 298.15 298.15 298.15 298.15
          298.15 298.15 298.15 298.15 298.15 298.15 298.15 298.15 298.15 298.15 298.15 298.15
          298.15 298.15 298.15 298.15 298.15
        </DataArray>
        <DataArray type="Float32" Name="moleFrac_liquid^H2O" NumberOfComponents="1" format="ascii">
          0.315519 0.315567 0.315502 0.315535 0.315592 0.315555 0.315603 0.315565 0.3155 0.315491 0.315488 0.315483
          0.315488 0.315483 0.315493 0.315488 0.315753 0.315743 0.32028 0.320214 0.320416 0.320349 0.320681 0.320612
          0.321079 0.321007 0.321616 0.321538 0.3223 0.322215 0.323143 0.323048 0.324171 0.324061 0.325561 0.325412
          0.32911 0.328723 0.349921 0.347872 0.478389 0.469306 0.999988 0.999988 0.999988 0.999988 0.999988 0.999988
          0.99999 0.999991 0.315494 0.315515 0.315529 0.315537 0.315488 0.315483 0.315483 0.315488 0.315734 0.320108
          0.32024 0.320496 0.320879 0.321395 0.32205 0.322854 0.323826 0.325086 0.327921 0.343985 0.452022 0.999988
          0.999988 0.999988 0.999991 0.315489 0.315502 0.315511 0.315516 0.315486 0.315483 0.315483 0.315488 0.315724
          0.319963 0.320089 0.320334 0.320701 0.321192 0.321813 0.322572 0.32348 0.324609 0.326761 0.337964 0.420468
          0.947791 0.999988 0.999988 0.999992 0.315487 0.315492 0.315497 0.3155 0.315485 0.315483 0.315483 0.315487
          0.315711 0.319784 0.319903 0.320134 0.320478 0.320938 0.321516 0.322217 0.323047 0.324029 0.32545 0.330538
          0.367008 0.604451 0.999988 0.999988 0.999989 0.315482 0.315484 0.315486 0.315488 0.315483 0.315483 0.315483
          0.315487 0.315697 0.319578 0.319688 0.319902 0.320221 0.320644 0.321173 0.321809 0.322553 0.323405 0.324409
          0.326134 0.334051 0.383471 0.566164 0.999988 0.999988 0.315474 0.315475 0.315476 0.315477 0.315482 0.315483
          0.315483 0.315487 0.315681 0.319349 0.319451 0.319647 0.319938 0.320322 0.320799 0.321367 0.322023 0.322761
          0.323576 0.324517 0.326269 0.334144 0.3704 0.460666 0.494317 0.315466 0.315467 0.315467 0.315467 0.315481
          0.315483 0.315483 0.315486 0.315665 0.319106 0.319199 0.319377 0.31964 0.319985 0.32041 0.320912 0.321483
          0.322116 0.322797 0.32351 0.324291 0.325663 0.330558 0.343572 0.350999 0.315459 0.315459 0.315459 0.315459
          0.31548 0.315483 0.315483 0.315486 0.315648 0.318855 0.318939 0.3191 0.319336 0.319644 0.320021 0.32046
          0.320954 0.321493 0.322062 0.32264 0.323205 0.323762 0.32454 0.326052 0.32703 0.315452 0.315452 0.315453
          0.315453 0.315479 0.315482 0.315483 0.315485 0.315632 0.318602 0.318679 0.318824 0.319036 0.319311 0.319643
          0.320027 0.320453 0.320911 0.321387 0.321861 0.32231 0.322709 0.323044 0.323333 0.323473 0.315447 0.315448
          0.315448 0.315449 0.315478 0.315482 0.315483 0.315485 0.315616 0.318353 0.318423 0.318556 0.318748 0.318994
          0.319288 0.319624 0.319993 0.320384 0.320784 0.321176 0.321541 0.321858 0.322105 0.322266 0.322324 0.315444
          0.315445 0.315447 0.315449 0.315477 0.315482 0.315483 0.315485 0.315601 0.318111 0.318178 0.318302 0.318479
          0.318702 0.318965 0.319261 0.319583 0.319919 0.320259 0.320588 0.32089 0.321149 0.321348 0.321474 0.321517
          0.315442 0.315444 0.315449 0.315454 0.315476 0.315482 0.315483 0.315484 0.315587 0.317876 0.317944 0.318066
          0.318234 0.318441 0.318681 0.318946 0.319231 0.319525 0.319819 0.3201 0.320355 0.320571 0.320736 0.32084
          0.320875 0.315441 0.315446 0.315456 0.315468 0.315475 0.315482 0.315483 0.315485 0.315574 0.317644 0.317723
          0.317853 0.31802 0.318218 0.318442 0.318685 0.318942 0.319205 0.319464 0.31971 0.319932 0.320118 0.320259
          0.320347 0.320377 0.315438 0.315446 0.315469 0.3155 0.315479 0.315495 0.315505 0.315517 0.315602 0.317401
          0.317515 0.317668 0.317843 0.318039 0.318254 0.318482 0.318721 0.318962 0.319198 0.31942 0.319618 0.319785