<?xml version="1.0"?>
<VTKFile type="UnstructuredGrid" version="0.1" byte_order="LittleEndian">
  <UnstructuredGrid>
    <Piece NumberOfCells="384" NumberOfPoints="425">
      <PointData Scalars="pressure_liquid">
        <DataArray type="Float32" Name="pressure_liquid" NumberOfComponents="1" format="ascii">
          100014 100048 100006 100028 100065 100042 100073 100049 100005 100003 100002 100000
          100002 100000 100002 100000 100026 100023 100871 100839 100922 100889 101023 100990
          101179 101144 101394 101356 101675 101633 102028 101982 102463 102410 102986 102926
          103609 103538 104343 104257 105202 105098 106205 106074 107328 107171 109490 109083
          186015 182148 100004 100017 100027 100032 100002 100000 100000 100000 100021 100798
          100847 100944 101093 101298 101565 101901 102311 102803 103385 104064 104851 105758
          106772 108528 181593 100002 100010 100016 100019 100001 100000 100000 100000 100020
          100750 100796 100888 101029 101223 101474 101788 102171 102627 103162 103779 104482
          105279 106158 107638 179913 100001 100005 100008 100010 100001 100000 100000 100000
          100018 100695 100738 100823 100954 101132 101364 101651 101999 102410 102885 103423
          104022 104675 105366 106288 162086 99998.9 100000 100001 100002 100000 100000 100000
          100000 100016 100635 100674 100752 100870 101032 101240 101497 101805 102165 102575
          103029 103517 104016 104483 104816 104785 99993.9 99994.2 99994.9 99995.4 100000 100000
          100000 100000 100014 100572 100607 100676 100781 100924 101108 101332 101599 101908
          102253 102626 103014 103391 103718 103931 103962 99987.6 99987.7 99988 99988.2 99999.7
          100000 100000 100000 100012 100507 100537 100598 100690 100815 100973 101166 101393
          101652 101937 102239 102543 102829 103067 103220 103265 99980.2 99980.3 99980.5 99980.6
          99999.5 100000 100000 100000 100010 100442 100469 100521 100600 100707 100842 101005
          101194 101408 101639 101881 102119 102336 102513 102627 102665 99971.9 99971.9 99972
          99972.1 99999.2 100000 100000 100000 100009 100379 100401 100446 100514 100604 100717
          100852 101009 101183 101369 101561 101746 101912 102045 102131 102160 99962.3 99962.4
          99962.5 99962.6 99998.9 100000 100000 100000 100007 100318 100337 100375 100432 100507
          100602 100714 100841 100982 101131 101282 101426 101554 101655 101719 101742 99951.3
          99951.4 99951.7 99951.9 99998.4 100000 100000 100000 100005 100260 100276 100309 100357
          100420 100498 100590 100694 100808 100927 101046 101158 101257 101334 101383 101400
          99938.6 99938.9 99939.4 99939.9 99997.9 100000 100000 100000 100004 100205 100220 100248
          100289 100342 100407 100484 100569 100661 100757 100851 100940 101017 101076 101114
          101127 99923.9 99924.4 99925.6 99926.9 99997.3 99999.9 100000 100000 100002 100153 100167
          100193 100229 100275 100330 100394 100466 100542 100620 100697 100768 100829 100877
          100907 100917 99906.7 99907.6 99910 99913.4 99994.4 99998.2 99998.7 99999.1 100000 100103
          100119 100144 100177 100219 100267 100323 100384 100449 100515 100580 100639 100690
          100730 100754 100763 99886 99887.4 99892.1 99901.6 99922.1 99941.6 99961.9 99984.8 100012
          100048 100075 100102 100135 100173 100218 100269 100325 100383 100442 100500 100552
          100597 100632 100654 100661 99860.9 99862.5 99867.7 99878 99895.3 99914.1 99934.3 99956.9
          99983.6 100014 100042 100070 100102 100140 100184 100233 100286 100343 100399 100455
          100505 100548 100581 100602 100609
        </DataArray>
        <DataArray type="Float32" Name="pressure_gas" NumberOfComponents="1" format="ascii">
          100014 100048 100006 100028 100065 100042 100073 100049 100005 100003 100002 100000
          100002 100000 100002 100000 100026 100023 100871 100839 100922 100889 101023 100990
          101179 101144 101394 101356 101675 101633 102028 101982 102463 102410 102986 102926
          103609 103538 104343 104257 105202 105098 106205 106074 107328 107171 109490 109083
          186015 182148 100004 100017 100027 100032 100002 100000 100000 100000 100021 100798
          100847 100944 101093 101298 101565 101901 102311 102803 103385 104064 104851 105758
          106772 108528 181593 100002 100010 100016 100019 100001 100000 100000 100000 100020
          100750 100796 100888 101029 101223 101474 101788 102171 102627 103162 103779 104482
          105279 106158 107638 179913 100001 100005 100008 100010 100001 100000 100000 100000
          100018 100695 100738 100823 100954 101132 101364 101651 101999 102410 102885 103423
          104022 104675 105366 106288 162086 99998.9 100000 100001 100002 100000 100000 100000
          100000 100016 100635 100674 100752 100870 101032 101240 101497 101805 102165 102575
          103029 103517 104016 104483 104816 104785 99993.9 99994.2 99994.9 99995.4 100000 100000
          100000 100000 100014 100572 100607 100676 100781 100924 101108 101332 101599 101908
          102253 102626 103014 103391 103718 103931 103962 99987.6 99987.7 99988 99988.2 99999.7
          100000 100000 100000 100012 100507 100537 100598 100690 100815 100973 101166 101393
          101652 101937 102239 102543 102829 103067 103220 103265 99980.2 99980.3 99980.5 99980.6
          99999.5 100000 100000 100000 100010 100442 100469 100521 100600 100707 100842 101005
          101194 101408 101639 101881 102119 102336 102513 102627 102665 99971.9 99971.9 99972
          99972.1 99999.2 100000 100000 100000 100009 100379 100401 100446 100514 100604 100717
          100852 101009 101183 101369 101561 101746 101912 102045 102131 102160 99962.3 99962.4
          99962.5 99962.6 99998.9 100000 100000 100000 100007 100318 100337 100375 100432 100507
          100602 100714 100841 100982 101131 101282 101426 101554 101655 101719 101742 99951.3
          99951.4 99951.7 99951.9 99998.4 100000 100000 100000 100005 100260 100276 100309 100357
          100420 100498 100590 100694 100808 100927 101046 101158 101257 101334 101383 101400
          99938.6 99938.9 99939.4 99939.9 99997.9 100000 100000 100000 100004 100205 100220 100248
          100289 100342 100407 100484 100569 100661 100757 100851 100940 101017 101076 101114
          101127 99923.9 99924.4 99925.6 99926.9 99997.3 99999.9 100000 100000 100002 100153 100167
          100193 100229 100275 100330 100394 100466 100542 100620 100697 100768 100829 100877
          100907 100917 99906.7 99907.6 99910 99913.4 99994.4 99998.2 99998.7 99999.1 100000 100103
          100119 100144 100177 100219 100267 100323 100384 100449 100515 100580 100639 100690
          100730 100754 100763 99886 99887.4 99892.1 99901.6 99922.1 99941.6 99961.9 99984.8 100012
          100048 100075 100102 100135 100173 100218 100269 100325 100383 100442 100500 100552
          100597 100632 100654 100661 99860.9 99862.5 99867.7 99878 99895.3 99914.1 99934.3 99956.9
          99983.6 100014 100042 100070 100102 100140 100184 100233 100286 100343 100399 100455
          100505 100548 100581 100602 100609
        </DataArray>
        <DataArray type="Float32" Name="density_liquid" NumberOfComponents="1" format="ascii">
          997.068 997.068 997.068 997.068 997.068 997.068 997.068 997.068 997.068 997.068 997.068 997.068
          997.068 997.068 997.068 997.068 997.068 997.068 997.068 997.068 997.068 997.068 997.068 997.068
          997.068 997.068 997.068 997.068 997.069 997.069 997.069 997.069 997.069 997.069 997.069 997.069
          997.069 997.069 997.069 997.069 997.066 997.067 997.059 997.059 997.058 997.058 997.059 997.059
          997.096 997.093 997.068 997.068 997.068 997.068 997.068 997.068 997.068 997.068 997.068 997.068
          997.068 997.068 997.068 997.068 997.068 997.069 997.069 997.069 997.069 997.069 997.067 997.06
          997.057 997.058 997.093 997.068 997.068 997.068 997.068 997.068 997.068 997.068 997.068 997.068
          997.068 997.068 997.068 997.068 997.068 997.068 997.069 997.069 997.069 997.069 997.069 997.068
          997.06 997.057 997.058 997.092 997.068 997.068 997.068 997.068 997.068 997.068 997.068 997.068
          997.068 997.068 997.068 997.068 997.068 997.068 997.068 997.069 997.069 997.069 997.069 997.069
          997.068 997.063 997.057 997.057 997.085 997.068 997.068 997.068 997.068 997.068 997.068 997.068
          997.068 997.068 997.068 997.068 997.068 997.068 997.068 997.068 997.068 997.069 997.069 997.069
          997.069 997.069 997.068 997.063 997.059 997.056 997.068 997.068 997.068 997.068 997.068 997.068
          997.068 997.068 997.068 997.068 997.068 997.068 997.068 997.068 997.068 997.068 997.069 997.069
          997.069 997.069 997.069 997.069 997.068 997.066 997.064 997.068 997.068 997.068 997.068 997.068
          997.068 997.068 997.068 997.068 997.068 997.068 997.068 997.068 997.068 997.068 997.068 997.068
          997.069 997.069 997.069 997.069 997.069 997.069 997.069 997.068 997.068 997.068 997.068 997.068
          997.068 997.068 997.068 997.068 997.068 997.068 997.068 997.068 997.068 997.068 997.068 997.068
          997.068 997.068 997.069 997.069 997.069 997.069 997.069 997.069 997.069 997.068 997.068 997.068
          997.068 997.068 997.068 997.068 997.068 997.068 997.068 997.068 997.068 997.068 997.068 997.068
          997.068 997.068 997.068 997.068 997.068 997.069 997.069 997.069 997.069 997.069 997.068 997.068
          997.068 997.068 997.068 997.068 997.068 997.068 997.068 997.068 997.068 997.068 997.068 997.068
          997.068 997.068 997.068 997.068 997.068 997.068 997.068 997.068 997.069 997.069 997.069 997.068
          997.068 997.068 997.068 997.068 997.068 997.068 997.068 997.068 997.068 997.068 997.068 997.068
          997.068 997.068 997.068 997.068 997.068 997.068 997.068 997.068 997.068 997.068 997.068 997.068
          997.068 997.068 997.068 997.068 997.068 997.068 997.068 997.068 997.068 997.068 997.068 997.068
          997.068 997.068 997.068 997.068 997.068 997.068 997.068 997.068 997.068 997.068 997.068 997.068
          997.068 997.068 997.068 997.068 997.068 997.068 997.068 997.068 997.068 997.068 997.068 997.068
          997.068 997.068 997.068 997.068 997.068 997.068 997.068 997.068 997.068 997.068 997.068 997.068
          997.068 997.068 997.068 997.068 997.068 997.068 997.068 997.068 997.068 997.068 997.068 997.068
          997.068 997.068 997.068 997.068 997.068 997.068 997.068 997.068 997.068 997.068 997.068 997.068
          997.068 997.068 997.068 997.068 997.068 997.068 997.068 997.068 997.068 997.068 997.068 997.068
          997.068 997.068 997.068 997.068 997.068 997.068 997.068 997.068 997.068 997.068 997.068 997.068
          997.068 997.068 997.068 997.068 997.068 997.068 997.068 997.068 997.068 997.068 997.068 997.068
          997.068 997.068 997.068 997.068 997.068 997.068 997.068 997.068 997.068 997.068 997.068 997.068
          997.068 997.068 997.068 997.068 997.068
        </DataArray>
        <DataArray type="Float32" Name="density_gas" NumberOfComponents="1" format="ascii">
          1.12616 1.12654 1.12607 1.12632 1.12673 1.12648 1.12682 1.12655 1.12606 1.12603 1.12602 1.126
          1.12602 1.126 1.12602 1.12601 1.1263 1.12626 1.13581 1.13545 1.13638 1.13601 1.13753 1.13715
          1.13928 1.13888 1.1417 1.14127 1.14486 1.14439 1.14884 1.14832 1.15373 1.15314 1.15963 1.15895
          1.16663 1.16583 1.17479 1.17384 1.18362 1.18257 1.18976 1.18919 1.20011 1.19833 1.22454 1.21995
          2.08609 2.04171 1.12604 1.1262 1.1263 1.12636 1.12602 1.126 1.126 1.12601 1.12624 1.13499
          1.13554 1.13663 1.13831 1.14062 1.14363 1.14741 1.15203 1.15757 1.16411 1.17169 1.17991 1.18609
          1.19383 1.21367 2.03513 1.12603 1.12612 1.12618 1.12622 1.12601 1.126 1.126 1.12601 1.12622
          1.13445 1.13496 1.136 1.13759 1.13977 1.1426 1.14614 1.15045 1.15559 1.1616 1.1685 1.17594
          1.18156 1.18689 1.20361 2.01525 1.12602 1.12606 1.12609 1.12612 1.12601 1.126 1.126 1.126
          1.1262 1.13383 1.13431 1.13527 1.13674 1.13875 1.14136 1.1446 1.14851 1.15314 1.15848 1.16453
          1.17103 1.17644 1.17794 1.18836 1.81722 1.12599 1.126 1.12602 1.12603 1.12601 1.126 1.126
          1.126 1.12618 1.13315 1.13359 1.13447 1.1358 1.13762 1.13996 1.14285 1.14632 1.15038 1.15499
          1.16011 1.16556 1.17083 1.17435 1.17546 1.17137 1.12593 1.12594 1.12595 1.12595 1.126 1.126
          1.126 1.126 1.12616 1.13244 1.13283 1.13361 1.1348 1.13641 1.13848 1.14101 1.14401 1.14748
          1.15137 1.15558 1.15994 1.16414 1.16757 1.16937 1.16908 1.12586 1.12586 1.12587 1.12587 1.126
          1.126 1.126 1.126 1.12614 1.13171 1.13205 1.13274 1.13378 1.13518 1.13696 1.13914 1.14169
          1.1446 1.14781 1.15121 1.15464 1.15786 1.16051 1.16216 1.16259 1.12578 1.12578 1.12578 1.12578
          1.126 1.126 1.126 1.126 1.12612 1.13098 1.13128 1.13187 1.13276 1.13396 1.13548 1.13732
          1.13945 1.14185 1.14446 1.14718 1.14986 1.15231 1.1543 1.15558 1.156 1.12569 1.12569 1.12569
          1.12569 1.12599 1.126 1.126 1.126 1.1261 1.13027 1.13052 1.13103 1.13178 1.1328 1.13408
          1.1356 1.13736 1.13932 1.14142 1.14357 1.14566 1.14754 1.14903 1.15 1.15033 1.12558 1.12558
          1.12558 1.12558 1.12599 1.126 1.126 1.126 1.12608 1.12958 1.1298 1.13022 1.13086 1.13172
          1.13278 1.13404 1.13548 1.13706 1.13874 1.14044 1.14206 1.1435 1.14463 1.14536 1.14561 1.12545
          1.12546 1.12546 1.12546 1.12599 1.126 1.126 1.126 1.12606 1.12893 1.12911 1.12948 1.13002
          1.13073 1.13161 1.13265 1.13382 1.1351 1.13644 1.13778 1.13904 1.14015 1.14102 1.14158 1.14177
          1.12531 1.12531 1.12532 1.12533 1.12598 1.126 1.126 1.126 1.12604 1.12831 1.12848 1.12879
          1.12925 1.12986 1.13059 1.13145 1.13241 1.13345 1.13452 1.13559 1.13658 1.13745 1.13812 1.13855
          1.1387 1.12515 1.12515 1.12516 1.12518 1.12597 1.126 1.126 1.126 1.12603 1.12773 1.12788
          1.12817 1.12858 1.1291 1.12972 1.13044 1.13125 1.1321 1.13298 1.13385 1.13465 1.13534 1.13587
          1.13621 1.13633 1.12495 1.12496 1.12499 1.12503 1.12594 1.12598 1.12599 1.12599 1.126 1.12716
          1.12734 1.12762 1.128 1.12846 1.12901 1.12964 1.13033 1.13106 1.13181 1.13253 1.1332 1.13378
          1.13422 1.1345 1.13459 1.12472 1.12474 1.12479 1.12489 1.12513 1.12534 1.12557 1.12583 1.12614
          1.12655 1.12684 1.12716 1.12752 1.12796 1.12846 1.12903 1.12966 1.13032 1.13098 1.13163 1.13222
          1.13273 1.13312 1.13336 1.13345 1.12444 1.12445 1.12451 1.12463 1.12482 1.12504 1.12526 1.12552
          1.12582 1.12616 1.12647 1.12679 1.12715 1.12758 1.12807 1.12862 1.12923 1.12986 1.1305 1.13112
          1.13169 1.13217 1.13254 1.13278 1.13286
        </DataArray>
        <DataArray type="Float32" Name="saturation_liquid" NumberOfComponents="1" format="ascii">
          0 0 0 0 0 0 0 0 0 0 0 0
          0 0 0 0 0 0 0 0 0 0 0 0
          0 0 0 0 0 0 0 0 0 0 0 0
          0 0 0 0 0 0 0 0 0.00241313 0.00172355 0.39149 0.327644
          1 1 0 0 0 0 0 0 0 0 0 0
          0 0 0 0 0 0 0 0 0 0 0 0
          0.00158822 0.327134 1 0 0 0 0 0 0 0 0 0
          0 0 0 0 0 0 0 0 0 0 0 0
          0 0.00125831 0.311627 1 0 0 0 0 0 0 0 0
          0 0 0 0 0 0 0 0 0 0 0 0
          0 0 0.000386826 0.178305 1 0 0 0 0 0 0 0
          0 0 0 0 0 0 0 0 0 0 0 0
          0 0 0 0 0 0.096226 0 0 0 0 0 0
          0 0 0 0 0 0 0 0 0 0 0 0
          0 0 0 0 0 0 0 0 0 0 0 0
          0 0 0 0 0 0 0 0 0 0 0 0
          0 0 0 0 0 0 0 0 0 0 0 0
          0 0 0 0 0 0 0 0 0 0 0 0
          0 0 0 0 0 0 0 0 0 0 0 0
          0 0 0 0 0 0 0 0 0 0 0 0
          0 0 0 0 0 0 0 0 0 0 0 0
          0 0 0 0 0 0 0 0 0 0 0 0
          0 0 0 0 0 0 0 0 0 0 0 0
          0 0 0 0 0 0 0 0 0 0 0 0
          0 0 0 0 0 0 0 0 0 0 0 0
          0 0 0 0 0 0 0 0 0 0 0 0
          0 0 0 0 0 0 0 0 0 0 0 0
          0 0 0 0 0 0 0 0 0 0 0 0
          0 0 0 0 0 0 0 0 0 0 0 0
          0 0 0 0 0 0 0 0 0 0 0 0
          0 0 0 0 0 0 0 0 0 0 0 0
          0 0 0 0 0 0 0 0 0 0 0 0
          0 0 0 0 0 0 0 0 0 0 0 0
          0 0 0 0 0 0 0 0 0 0 0 0
          0 0 0 0 0 0 0 0 0 0 0 0
          0 0 0 0 0
        </DataArray>
        <DataArray type="Float32" Name="saturation_gas" NumberOfComponents="1" format="ascii">
          1 1 1 1 1 1 1 1 1 1 1 1
          1 1 1 1 1 1 1 1 1 1 1 1
          1 1 1 1 1 1 1 1 1 1 1 1
          1 1 1 1 1 1 1 1 0.997587 0.998276 0.60851 0.672356
          0 0 1 1 1 1 1 1 1 1 1 1
          1 1 1 1 1 1 1 1 1 1 1 1
          0.998412 0.672866 0 1 1 1 1 1 1 1 1 1
          1 1 1 1 1 1 1 1 1 1 1 1
          1 0.998742 0.688373 0 1 1 1 1 1 1 1 1
          1 1 1 1 1 1 1 1 1 1 1 1
          1 1 0.999613 0.821695 0 1 1 1 1 1 1 1
          1 1 1 1 1 1 1 1 1 1 1 1
          1 1 1 1 1 0.903774 1 1 1 1 1 1
          1 1 1 1 1 1 1 1 1 1 1 1
          1 1 1 1 1 1 1 1 1 1 1 1
          1 1 1 1 1 1 1 1 1 1 1 1
          1 1 1 1 1 1 1 1 1 1 1 1
          1 1 1 1 1 1 1 1 1 1 1 1
          1 1 1 1 1 1 1 1 1 1 1 1
          1 1 1 1 1 1 1 1 1 1 1 1
          1 1 1 1 1 1 1 1 1 1 1 1
          1 1 1 1 1 1 1 1 1 1 1 1
          1 1 1 1 1 1 1 1 1 1 1 1
          1 1 1 1 1 1 1 1 1 1 1 1
          1 1 1 1 1 1 1 1 1 1 1 1
          1 1 1 1 1 1 1 1 1 1 1 1
          1 1 1 1 1 1 1 1 1 1 1 1
          1 1 1 1 1 1 1 1 1 1 1 1
          1 1 1 1 1 1 1 1 1 1 1 1
          1 1 1 1 1 1 1 1 1 1 1 1
          1 1 1 1 1 1 1 1 1 1 1 1
          1 1 1 1 1 1 1 1 1 1 1 1
          1 1 1 1 1 1 1 1 1 1 1 1
          1 1 1 1 1 1 1 1 1 1 1 1
          1 1 1 1 1 1 1 1 1 1 1 1
          1 1 1 1 1
        </DataArray>
        <DataArray type="Float32" Name="relativePerm_liquid" NumberOfComponents="1" format="ascii">
          0 0 0 0 0 0 0 0 0 0 0 0
          0 0 0 0 0 0 0 0 0 0 0 0
          0 0 0 0 0 0 0 0 0 0 0 0
          0 0 0 0 0 0 0 0 0.00241313 0.00172355 0.39149 0.327644
          1 1 0 0 0 0 0 0 0 0 0 0
          0 0 0 0 0 0 0 0 0 0 0 0
          0.00158822 0.327134 1 0 0 0 0 0 0 0 0 0
          0 0 0 0 0 0 0 0 0 0 0 0
          0 0.00125831 0.311627 1 0 0 0 0 0 0 0 0
          0 0 0 0 0 0 0 0 0 0 0 0
          0 0 0.000386826 0.178305 1 0 0 0 0 0 0 0
          0 0 0 0 0 0 0 0 0 0 0 0
          0 0 0 0 0 0.096226 0 0 0 0 0 0
          0 0 0 0 0 0 0 0 0 0 0 0
          0 0 0 0 0 0 0 0 0 0 0 0
          0 0 0 0 0 0 0 0 0 0 0 0
          0 0 0 0 0 0 0 0 0 0 0 0
          0 0 0 0 0 0 0 0 0 0 0 0
          0 0 0 0 0 0 0 0 0 0 0 0
          0 0 0 0 0 0 0 0 0 0 0 0
          0 0 0 0 0 0 0 0 0 0 0 0
          0 0 0 0 0 0 0 0 0 0 0 0
          0 0 0 0 0 0 0 0 0 0 0 0
          0 0 0 0 0 0 0 0 0 0 0 0
          0 0 0 0 0 0 0 0 0 0 0 0
          0 0 0 0 0 0 0 0 0 0 0 0
          0 0 0 0 0 0 0 0 0 0 0 0
          0 0 0 0 0 0 0 0 0 0 0 0
          0 0 0 0 0 0 0 0 0 0 0 0
          0 0 0 0 0 0 0 0 0 0 0 0
          0 0 0 0 0 0 0 0 0 0 0 0
          0 0 0 0 0 0 0 0 0 0 0 0
          0 0 0 0 0 0 0 0 0 0 0 0
          0 0 0 0 0 0 0 0 0 0 0 0
          0 0 0 0 0 0 0 0 0 0 0 0
          0 0 0 0 0
        </DataArray>
        <DataArray type="Float32" Name="relativePerm_gas" NumberOfComponents="1" format="ascii">
          1 1 1 1 1 1 1 1 1 1 1 1
          1 1 1 1 1 1 1 1 1 1 1 1
          1 1 1 1 1 1 1 1 1 1 1 1
          1 1 1 1 1 1 1 1 0.997587 0.998276 0.60851 0.672356
          0 0 1 1 1 1 1 1 1 1 1 1
          1 1 1 1 1 1 1 1 1 1 1 1
          0.998412 0.672866 0 1 1 1 1 1 1 1 1 1
          1 1 1 1 1 1 1 1 1 1 1 1
          1 0.998742 0.688373 0 1 1 1 1 1 1 1 1
          1 1 1 1 1 1 1 1 1 1 1 1
          1 1 0.999613 0.821695 0 1 1 1 1 1 1 1
          1 1 1 1 1 1 1 1 1 1 1 1
          1 1 1 1 1 0.903774 1 1 1 1 1 1
          1 1 1 1 1 1 1 1 1 1 1 1
          1 1 1 1 1 1 1 1 1 1 1 1
          1 1 1 1 1 1 1 1 1 1 1 1
          1 1 1 1 1 1 1 1 1 1 1 1
          1 1 1 1 1 1 1 1 1 1 1 1
          1 1 1 1 1 1 1 1 1 1 1 1
          1 1 1 1 1 1 1 1 1 1 1 1
          1 1 1 1 1 1 1 1 1 1 1 1
          1 1 1 1 1 1 1 1 1 1 1 1
          1 1 1 1 1 1 1 1 1 1 1 1
          1 1 1 1 1 1 1 1 1 1 1 1
          1 1 1 1 1 1 1 1 1 1 1 1
          1 1 1 1 1 1 1 1 1 1 1 1
          1 1 1 1 1 1 1 1 1 1 1 1
          1 1 1 1 1 1 1 1 1 1 1 1
          1 1 1 1 1 1 1 1 1 1 1 1
          1 1 1 1 1 1 1 1 1 1 1 1
          1 1 1 1 1 1 1 1 1 1 1 1
          1 1 1 1 1 1 1 1 1 1 1 1
          1 1 1 1 1 1 1 1 1 1 1 1
          1 1 1 1 1 1 1 1 1 1 1 1
          1 1 1 1 1 1 1 1 1 1 1 1
          1 1 1 1 1
        </DataArray>
        <DataArray type="Float32" Name="porosity" NumberOfComponents="1" format="ascii">
          0.3 0.3 0.3 0.3 0.3 0.3 0.3 0.3 0.3 0.3 0.3 0.3
          0.3 0.3 0.3 0.3 0.3 0.3 0.3 0.3 0.3 0.3 0.3 0.3
          0.3 0.3 0.3 0.3 0.3 0.3 0.3 0.3 0.3 0.3 0.3 0.3
          0.3 0.3 0.3 0.3 0.3 0.3 0.3 0.3 0.3 0.3 0.3 0.3
          0.3 0.3 0.3 0.3 0.3 0.3 0.3 0.3 0.3 0.3 0.3 0.3
          0.3 0.3 0.3 0.3 0.3 0.3 0.3 0.3 0.3 0.3 0.3 0.3
          0.3 0.3 0.3 0.3 0.3 0.3 0.3 0.3 0.3 0.3 0.3 0.3
          0.3 0.3 0.3 0.3 0.3 0.3 0.3 0.3 0.3 0.3 0.3 0.3
          0.3 0.3 0.3 0.3 0.3 0.3 0.3 0.3 0.3 0.3 0.3 0.3
          0.3 0.3 0.3 0.3 0.3 0.3 0.3 0.3 0.3 0.3 0.3 0.3
          0.3 0.3 0.3 0.3 0.3 0.3 0.3 0.3 0.3 0.3 0.3 0.3
          0.3 0.3 0.3 0.3 0.3 0.3 0.3 0.3 0.3 0.3 0.3 0.3
          0.3 0.3 0.3 0.3 0.3 0.3 0.3 0.3 0.3 0.3 0.3 0.3
          0.3 0.3 0.3 0.3 0.3 0.3 0.3 0.3 0.3 0.3 0.3 0.3
          0.3 0.3 0.3 0.3 0.3 0.3 0.3 0.3 0.3 0.3 0.3 0.3
          0.3 0.3 0.3 0.3 0.3 0.3 0.3 0.3 0.3 0.3 0.3 0.3
          0.3 0.3 0.3 0.3 0.3 0.3 0.3 0.3 0.3 0.3 0.3 0.3
          0.3 0.3 0.3 0.3 0.3 0.3 0.3 0.3 0.3 0.3 0.3 0.3
          0.3 0.3 0.3 0.3 0.3 0.3 0.3 0.3 0.3 0.3 0.3 0.3
          0.3 0.3 0.3 0.3 0.3 0.3 0.3 0.3 0.3 0.3 0.3 0.3
          0.3 0.3 0.3 0.3 0.3 0.3 0.3 0.3 0.3 0.3 0.3 0.3
          0.3 0.3 0.3 0.3 0.3 0.3 0.3 0.3 0.3 0.3 0.3 0.3
          0.3 0.3 0.3 0.3 0.3 0.3 0.3 0.3 0.3 0.3 0.3 0.3
          0.3 0.3 0.3 0.3 0.3 0.3 0.3 0.3 0.3 0.3 0.3 0.3
          0.3 0.3 0.3 0.3 0.3 0.3 0.3 0.3 0.3 0.3 0.3 0.3
          0.3 0.3 0.3 0.3 0.3 0.3 0.3 0.3 0.3 0.3 0.3 0.3
          0.3 0.3 0.3 0.3 0.3 0.3 0.3 0.3 0.3 0.3 0.3 0.3
          0.3 0.3 0.3 0.3 0.3 0.3 0.3 0.3 0.3 0.3 0.3 0.3
          0.3 0.3 0.3 0.3 0.3 0.3 0.3 0.3 0.3 0.3 0.3 0.3
          0.3 0.3 0.3 0.3 0.3 0.3 0.3 0.3 0.3 0.3 0.3 0.3
          0.3 0.3 0.3 0.3 0.3 0.3 0.3 0.3 0.3 0.3 0.3 0.3
          0.3 0.3 0.3 0.3 0.3 0.3 0.3 0.3 0.3 0.3 0.3 0.3
          0.3 0.3 0.3 0.3 0.3 0.3 0.3 0.3 0.3 0.3 0.3 0.3
          0.3 0.3 0.3 0.3 0.3 0.3 0.3 0.3 0.3 0.3 0.3 0.3
          0.3 0.3 0.3 0.3 0.3 0.3 0.3 0.3 0.3 0.3 0.3 0.3
          0.3 0.3 0.3 0.3 0.3
        </DataArray>
        <DataArray type="Float32" Name="temperature" NumberOfComponents="1" format="ascii">
          298.15 298.15 298.15 298.15 298.15 298.15 298.15 298.15 298.15 298.15 298.15 298.15
          298.15 298.15 298.15 298.15 298.15 298.15 298.15 298.15 298.15 298.15 298.15 298.15
          298.15 298.15 298.15 298.15 298.15 298.15 298.15 298.15 298.15 298.15 298.15 298.15
          298.15 298.15 298.15 298.15 298.15 298.15 298.15 298.15 298.15 298.15 298.15 298.15
          298.15 298.15 298.15 298.15 298.15 298.15 298.15 298.15 298.15 298.15 298.15 298.15
          298.15 298.15 298.15 298.15 298.15 298.15 298.15 298.15 298.15 298.15 298.15 298.15
          298.15 298.15 298.15 298.15 298.15 298.15 298.15 298.15 298.15 298.15 298.15 298.15
          298.15 298.15 298.15 298.15 298.15 298.15 298.15 298.15 298.15 298.15 298.15 298.15
          298.15 298.15 298.15 298.15 298.15 298.15 298.15 298.15 298.15 298.15 298.15 298.15
          298.15 298.15 298.15 298.15 298.15 298.15 298.15 298.15 298.15 298.15 298.15 298.15
          298.15 298.15 298.15 298.15 298.15 298.15 298.15 298.15 298.15 298.15 298.15 298.15
          298.15 298.15 298.15 298.15 298.15 298.15 298.15 298.15 298.15 298.15 298.15 298.15
          298.15 298.15 298.15 298.15 298.15 298.15 298.15 298.15 298.15 298.15 298.15 298.15
          298.15 298.15 298.15 298.15 298.15 298.15 298.15 298.15 298.15 298.15 298.15 298.15
          298.15 298.15 298.15 298.15 298.15 298.15 298.15 298.15 298.15 298.15 298.15 298.15
          298.15 298.15 298.15 298.15 298.15 298.15 298.15 298.15 298.15 298.15 298.15 298.15
          298.15 298.15 298.15 298.15 298.15 298.15 298.15 298.15 298.15 298.15 298.15 298.15
          298.15 298.15 298.15 298.15 298.15 298.15 298.15 298.15 298.15 298.15 298.15 298.15
          298.15 298.15 298.15 298.15 298.15 298.15 298.15 298.15 298.15 298.15 298.15 298.15
          298.15 298.15 298.15 298.15 298.15 298.15 298.15 298.15 298.15 298.15 298.15 298.15
          298.15 298.15 298.15 298.15 298.15 298.15 298.15 298.15 298.15 298.15 298.15 298.15
          298.15 298.15 298.15 298.15 298.15 298.15 298.15 298.15 298.15 298.15 298.15 298.15
          298.15 298.15 298.15 298.15 298.15 298.15 298.15 298.15 298.15 298.15 298.15 298.15
          298.15 298.15 298.15 298.15 298.15 298.15 298.15 298.15 298.15 298.15 298.15 298.15
          298.15 298.15 298.15 298.15 298.15 298.15 298.15 298.15 298.15 298.15 298.15 298.15
          298.15 298.15 298.15 298.15 298.15 298.15 298.15 298.15 298.15 298.15 298.15 298.15
          298.15 298.15 298.15 298.15 298.15 298.15 298.15 298.15 298.15 298.15 298.15 298.15
          298.15 298.15 298.15 298.15 298.15 298.15 298.15 298.15 298.15 298.15 298.15 298.15
          298.15 298.15 298.15 298.15 298.15 298.15 298.15 298.15 298.15 298.15 298.15 298.15
          298.15 298.15 298.15 298.15 298.15 298.15 298.15 298.15 298.15 298.15 298.15 298.15
          298.15 298.15 298.15 298.15 298.15 298.15 298.15 298.15 298.15 298.15 298.15 298.15
          298.15 298.15 298.15 298.15 298.15 298.15 298.15 298.15 298.15 298.15 298.15 298.15
          298.15 298.15 298.15 298.15 298.15 298.15 298.15 298.15 298.15 298.15 298.15 298.15
          298.15 298.15 298.15 298.15 298.15 298.15 298.15 298.15 298.15 298.15 298.15 298.15
          298.15 298.15 298.15 298.15 298.15 298.15 298.15 298.15 298.15 298.15 298.15 298.15
          298.15 298.15 298.15 298.15 298.15
        </DataArray>
        <DataArray type="Float32" Name="moleFrac_liquid^H2O" NumberOfComponents="1" format="ascii">
          0.315525 0.315633 0.315502 0.315572 0.315687 0.315616 0.315711 0.315636 0.3155 0.315491 0.315488 0.315483
          0.315488 0.315483 0.315489 0.315484 0.315565 0.315555 0.318231 0.318129 0.318391 0.318288 0.318711 0.318604
          0.319203 0.319091 0.319882 0.319761 0.320767 0.320636 0.321882 0.321736 0.323255 0.323089 0.324961 0.324762
          0.327697 0.327367 0.338232 0.336877 0.406932 0.397336 0.815885 0.744225 0.999988 0.999988 0.999988 0.999988
          0.999983 0.999984 0.315494 0.315537 0.315567 0.315582 0.315488 0.315483 0.315483 0.315483 0.31555 0.318001
          0.318154 0.318461 0.318931 0.319578 0.320421 0.321479 0.322775 0.324363 0.326722 0.334824 0.387726 0.707085
          0.999988 0.999988 0.999985 0.315489 0.315515 0.315533 0.315543 0.315486 0.315483 0.315483 0.315483 0.315545
          0.317848 0.317993 0.318284 0.318728 0.31934 0.320133 0.321125 0.322333 0.323792 0.325803 0.331818 0.372144
          0.637359 0.999988 0.999988 0.999985 0.315487 0.315498 0.315508 0.315514 0.315484 0.315483 0.315483 0.315483
          0.315539 0.317675 0.31781 0.318079 0.318491 0.319055 0.319785 0.320692 0.321789 0.323091 0.324709 0.328144
          0.349103 0.503444 0.999988 0.999988 0.999984 0.315479 0.315482 0.315487 0.31549 0.315483 0.315483 0.315483
          0.315483 0.315533 0.317486 0.317609 0.317854 0.318227 0.318737 0.319393 0.320204 0.321176 0.322313 0.323622
          0.325315 0.330012 0.358961 0.497512 0.705795 0.999988 0.315463 0.315464 0.315466 0.315468 0.315483 0.315483
          0.315483 0.315483 0.315527 0.317286 0.317396 0.317615 0.317947 0.318399 0.318977 0.319686 0.320529 0.321501
          0.322591 0.323794 0.325344 0.329755 0.350796 0.398961 0.449426 0.315443 0.315444 0.315445 0.315445 0.315482
          0.315483 0.315483 0.315483 0.315521 0.317082 0.317178 0.31737 0.317661 0.318054 0.318554 0.319162 0.319878
          0.320693 0.321592 0.322547 0.323532 0.324699 0.327364 0.333632 0.339819 0.31542 0.31542 0.315421 0.315421
          0.315481 0.315483 0.315483 0.315483 0.315515 0.316877 0.316961 0.317126 0.317377 0.317713 0.318139 0.318652
          0.31925 0.319923 0.320655 0.321416 0.322168 0.322871 0.323558 0.324384 0.325016 0.315394 0.315394 0.315394
          0.315395 0.31548 0.315483 0.315483 0.315483 0.31551 0.316677 0.316749 0.31689 0.317103 0.317387 0.317744
          0.318172 0.318665 0.319214 0.319803 0.320406 0.320991 0.321516 0.321942 0.322239 0.322363 0.315364 0.315364
          0.315364 0.315365 0.315479 0.315483 0.315483 0.315483 0.315504 0.316484 0.316545 0.316665 0.316845 0.317083
          0.317381 0.317734 0.318137 0.318581 0.319051 0.319527 0.319982 0.320385 0.320703 0.320908 0.32098 0.315329
          0.315329 0.31533 0.315331 0.315478 0.315483 0.315483 0.315483 0.315499 0.316302 0.316354 0.316456 0.316607
          0.316807 0.317054 0.317344 0.317673 0.318031 0.318406 0.318782 0.319136 0.319447 0.319691 0.319846 0.3199
          0.315289 0.31529 0.315291 0.315293 0.315476 0.315483 0.315483 0.315483 0.315494 0.316129 0.316175 0.316264
          0.316393 0.316562 0.316768 0.317008 0.317277 0.317568 0.317869 0.318168 0.318447 0.31869 0.318878 0.318998
          0.319039 0.315243 0.315244 0.315248 0.315252 0.315474 0.315482 0.315483 0.315483 0.31549 0.315966 0.31601
          0.31609 0.316204 0.31635 0.316525 0.316727 0.316952 0.317192 0.317438 0.31768 0.317905 0.318098 0.318248
          0.318343 0.318375 0.315188 0.315191 0.315199 0.315209 0.315465 0.315477 0.315478 0.31548 0.315483 0.315806
          0.315857 0.315937 0.316042 0.316172 0.316326 0.316502 0.316695 0.3169 0.317109 0.317312 0.3175 0.317661
          0.317784 0.317862 0.317889 0.315123 0.315128 0.315142 0.315172 0.315237 0.315298 0.315362 0.315435 0.315522