<?xml version="1.0"?>
<VTKFile type="UnstructuredGrid" version="0.1" byte_order="LittleEndian">
  <UnstructuredGrid>
    <Piece NumberOfCells="384" NumberOfPoints="425">
      <PointData Scalars="pressure_liquid">
        <DataArray type="Float32" Name="pressure_liquid" NumberOfComponents="1" format="ascii">
          100012 100027 100006 100017 100035 100023 100038 100026 100005 100003 100002 100000
          100002 100000 100003 100002 100084 100081 101433 101413 101475 101454 101556 101535
          101679 101656 101844 101820 102056 102029 102316 102286 102631 102598 103008 102968
          103455 103408 103986 103929 104619 104548 105376 105289 106295 106198 109323 108686
          172865 169909 100004 100011 100015 100018 100002 100000 100000 100002 100078 101380
          101421 101499 101617 101776 101978 102227 102526 102880 103298 103788 104366 105050
          105877 108060 169036 100002 100006 100010 100011 100001 100000 100000 100002 100075
          101337 101375 101450 101563 101714 101906 102140 102420 102750 103133 103577 104089
          104682 105379 107054 166261 100002 100004 100005 100006 100001 100000 100000 100002
          100071 101283 101319 101390 101495 101637 101815 102031 102288 102585 102927 103313
          103745 104224 104752 105560 146944 100001 100001 100002 100002 100000 100000 100000
          100001 100066 101221 101254 101320 101417 101547 101710 101906 102136 102399 102695
          103020 103369 103730 104073 104322 104354 99998.5 99998.7 99999.1 99999.3 99999.9 100000
          100000 100001 100062 101152 101183 101243 101332 101450 101596 101771 101973 102202
          102453 102721 102998 103267 103501 103653 103669 99996.2 99996.3 99996.5 99996.6 99999.6
          100000 100000 100001 100057 101079 101108 101162 101242 101347 101478 101632 101808
          102003 102214 102433 102652 102855 103023 103131 103161 99994 99994.1 99994.2 99994.3
          99999.3 100000 100000 100001 100052 101004 101030 101079 101150 101244 101359 101494
          101645 101811 101987 102166 102339 102496 102621 102702 102728 99992.1 99992.2 99992.3
          99992.4 99999 100000 100000 100001 100047 100929 100952 100996 101060 101143 101244
          101361 101492 101633 101779 101925 102064 102186 102283 102345 102366 99990.6 99990.7
          99991 99991.3 99998.6 100000 100000 100001 100042 100855 100876 100916 100974 101048
          101137 101239 101351 101471 101593 101713 101826 101924 102000 102048 102064 99989.6
          99989.9 99990.5 99991.1 99998.3 99999.9 100000 100001 100038 100782 100802 100840 100893
          100960 101039 101128 101226 101328 101432 101532 101625 101704 101765 101804 101817
          99989.1 99989.7 99991.1 99992.5 99998 99999.9 100000 100001 100033 100712 100733 100769
          100819 100881 100953 101033 101118 101207 101296 101382 101459 101525 101576 101607
          101618 99988.6 99989.8 99993.1 99996.5 99997.8 100000 100000 100001 100029 100643 100667
          100705 100755 100814 100880 100953 101030 101109 101187 101262 101329 101385 101428
          101455 101464 99987.1 99989.6 99996.6 100006 99999.6 100004 100008 100012 100039 100571
          100604 100650 100702 100760 100823 100891 100963 101035 101105 101172 101232 101282
          101320 101343 101351 99982.7 99986.7 99999.9 100027 100084 100144 100212 100288 100377
          100483 100549 100606 100662 100721 100783 100848 100916 100984 101051 101113 101169
          101215 101250 101272 101279 99972.3 99976.9 99991.9 100022 100072 100131 100198 100274
          100359 100451 100522 100582 100639 100698 100760 100825 100891 100958 101023 101084
          101138 101183 101217 101239 101246
        </DataArray>
        <DataArray type="Float32" Name="pressure_gas" NumberOfComponents="1" format="ascii">
          100012 100027 100006 100017 100035 100023 100038 100026 100005 100003 100002 100000
          100002 100000 100003 100002 100084 100081 101433 101413 101475 101454 101556 101535
          101679 101656 101844 101820 102056 102029 102316 102286 102631 102598 103008 102968
          103455 103408 103986 103929 104619 104548 105376 105289 106295 106198 109323 108686
          172865 169909 100004 100011 100015 100018 100002 100000 100000 100002 100078 101380
          101421 101499 101617 101776 101978 102227 102526 102880 103298 103788 104366 105050
          105877 108060 169036 100002 100006 100010 100011 100001 100000 100000 100002 100075
          101337 101375 101450 101563 101714 101906 102140 102420 102750 103133 103577 104089
          104682 105379 107054 166261 100002 100004 100005 100006 100001 100000 100000 100002
          100071 101283 101319 101390 101495 101637 101815 102031 102288 102585 102927 103313
          103745 104224 104752 105560 146944 100001 100001 100002 100002 100000 100000 100000
          100001 100066 101221 101254 101320 101417 101547 101710 101906 102136 102399 102695
          103020 103369 103730 104073 104322 104354 99998.5 99998.7 99999.1 99999.3 99999.9 100000
          100000 100001 100062 101152 101183 101243 101332 101450 101596 101771 101973 102202
          102453 102721 102998 103267 103501 103653 103669 99996.2 99996.3 99996.5 99996.6 99999.6
          100000 100000 100001 100057 101079 101108 101162 101242 101347 101478 101632 101808
          102003 102214 102433 102652 102855 103023 103131 103161 99994 99994.1 99994.2 99994.3
          99999.3 100000 100000 100001 100052 101004 101030 101079 101150 101244 101359 101494
          101645 101811 101987 102166 102339 102496 102621 102702 102728 99992.1 99992.2 99992.3
          99992.4 99999 100000 100000 100001 100047 100929 100952 100996 101060 101143 101244
          101361 101492 101633 101779 101925 102064 102186 102283 102345 102366 99990.6 99990.7
          99991 99991.3 99998.6 100000 100000 100001 100042 100855 100876 100916 100974 101048
          101137 101239 101351 101471 101593 101713 101826 101924 102000 102048 102064 99989.6
          99989.9 99990.5 99991.1 99998.3 99999.9 100000 100001 100038 100782 100802 100840 100893
          100960 101039 101128 101226 101328 101432 101532 101625 101704 101765 101804 101817
          99989.1 99989.7 99991.1 99992.5 99998 99999.9 100000 100001 100033 100712 100733 100769
          100819 100881 100953 101033 101118 101207 101296 101382 101459 101525 101576 101607
          101618 99988.6 99989.8 99993.1 99996.5 99997.8 100000 100000 100001 100029 100643 100667
          100705 100755 100814 100880 100953 101030 101109 101187 101262 101329 101385 101428
          101455 101464 99987.1 99989.6 99996.6 100006 99999.6 100004 100008 100012 100039 100571
          100604 100650 100702 100760 100823 100891 100963 101035 101105 101172 101232 101282
          101320 101343 101351 99982.7 99986.7 99999.9 100027 100084 100144 100212 100288 100377
          100483 100549 100606 100662 100721 100783 100848 100916 100984 101051 101113 101169
          101215 101250 101272 101279 99972.3 99976.9 99991.9 100022 100072 100131 100198 100274
          100359 100451 100522 100582 100639 100698 100760 100825 100891 100958 101023 101084
          101138 101183 101217 101239 101246
        </DataArray>
        <DataArray type="Float32" Name="density_liquid" NumberOfComponents="1" format="ascii">
          997.048 997.048 997.048 997.048 997.048 997.048 997.048 997.048 997.048 997.048 997.048 997.048
          997.048 997.048 997.048 997.048 997.048 997.048 997.048 997.048 997.048 997.048 997.048 997.048
          997.048 997.048 997.049 997.048 997.049 997.049 997.049 997.049 997.049 997.049 997.049 997.049
          997.049 997.049 997.049 997.049 997.05 997.05 997.05 997.05 997.05 997.05 997.052 997.052
          997.081 997.079 997.048 997.048 997.048 997.048 997.048 997.048 997.048 997.048 997.048 997.048
          997.048 997.048 997.048 997.048 997.049 997.049 997.049 997.049 997.049 997.049 997.05 997.05
          997.05 997.051 997.079 997.048 997.048 997.048 997.048 997.048 997.048 997.048 997.048 997.048
          997.048 997.048 997.048 997.048 997.048 997.049 997.049 997.049 997.049 997.049 997.049 997.049
          997.05 997.05 997.051 997.078 997.048 997.048 997.048 997.048 997.048 997.048 997.048 997.048
          997.048 997.048 997.048 997.048 997.048 997.048 997.048 997.049 997.049 997.049 997.049 997.049
          997.049 997.05 997.05 997.05 997.069 997.048 997.048 997.048 997.048 997.048 997.048 997.048
          997.048 997.048 997.048 997.048 997.048 997.048 997.048 997.048 997.049 997.049 997.049 997.049
          997.049 997.049 997.049 997.049 997.05 997.05 997.048 997.048 997.048 997.048 997.048 997.048
          997.048 997.048 997.048 997.048 997.048 997.048 997.048 997.048 997.048 997.048 997.049 997.049
          997.049 997.049 997.049 997.049 997.049 997.049 997.049 997.048 997.048 997.048 997.048 997.048
          997.048 997.048 997.048 997.048 997.048 997.048 997.048 997.048 997.048 997.048 997.048 997.048
          997.049 997.049 997.049 997.049 997.049 997.049 997.049 997.049 997.048 997.048 997.048 997.048
          997.048 997.048 997.048 997.048 997.048 997.048 997.048 997.048 997.048 997.048 997.048 997.048
          997.048 997.048 997.049 997.049 997.049 997.049 997.049 997.049 997.049 997.048 997.048 997.048
          997.048 997.048 997.048 997.048 997.048 997.048 997.048 997.048 997.048 997.048 997.048 997.048
          997.048 997.048 997.048 997.048 997.049 997.049 997.049 997.049 997.049 997.049 997.048 997.048
          997.048 997.048 997.048 997.048 997.048 997.048 997.048 997.048 997.048 997.048 997.048 997.048
          997.048 997.048 997.048 997.048 997.048 997.048 997.049 997.049 997.049 997.049 997.049 997.048
          997.048 997.048 997.048 997.048 997.048 997.048 997.048 997.048 997.048 997.048 997.048 997.048
          997.048 997.048 997.048 997.048 997.048 997.048 997.048 997.048 997.048 997.048 997.048 997.048
          997.048 997.048 997.048 997.048 997.048 997.048 997.048 997.048 997.048 997.048 997.048 997.048
          997.048 997.048 997.048 997.048 997.048 997.048 997.048 997.048 997.048 997.048 997.048 997.048
          997.048 997.048 997.048 997.048 997.048 997.048 997.048 997.048 997.048 997.048 997.048 997.048
          997.048 997.048 997.048 997.048 997.048 997.048 997.048 997.048 997.048 997.048 997.048 997.048
          997.048 997.048 997.048 997.048 997.048 997.048 997.048 997.048 997.048 997.048 997.048 997.048
          997.048 997.048 997.048 997.048 997.048 997.048 997.048 997.048 997.048 997.048 997.048 997.048
          997.048 997.048 997.048 997.048 997.048 997.048 997.048 997.048 997.048 997.048 997.048 997.048
          997.048 997.048 997.048 997.048 997.048 997.048 997.048 997.048 997.048 997.048 997.048 997.048
          997.048 997.048 997.048 997.048 997.048 997.048 997.048 997.048 997.048 997.048 997.048 997.048
          997.048 997.048 997.048 997.048 997.048 997.048 997.048 997.048 997.048 997.048 997.048 997.048
          997.048 997.048 997.048 997.048 997.048
        </DataArray>
        <DataArray type="Float32" Name="density_gas" NumberOfComponents="1" format="ascii">
          1.13015 1.13032 1.13008 1.1302 1.13041 1.13028 1.13045 1.13031 1.13008 1.13005 1.13003 1.13002
          1.13003 1.13002 1.13005 1.13004 1.13096 1.13092 1.14621 1.14598 1.14668 1.14645 1.1476 1.14736
          1.14899 1.14873 1.15086 1.15058 1.15324 1.15294 1.15619 1.15585 1.15975 1.15937 1.16401 1.16356
          1.16906 1.16853 1.17506 1.17441 1.18221 1.1814 1.19077 1.18979 1.20115 1.20005 1.23537 1.22817
          1.95342 1.92002 1.13006 1.13013 1.13019 1.13021 1.13003 1.13001 1.13001 1.13003 1.13089 1.14561
          1.14607 1.14696 1.14829 1.15008 1.15237 1.15518 1.15855 1.16256 1.16728 1.17282 1.17935 1.18708
          1.19642 1.2211 1.91016 1.13004 1.13009 1.13012 1.13014 1.13003 1.13001 1.13001 1.13003 1.13086
          1.14512 1.14555 1.1464 1.14767 1.14938 1.15155 1.1542 1.15736 1.16109 1.16542 1.17043 1.17622
          1.18293 1.1908 1.20972 1.8788 1.13003 1.13006 1.13007 1.13008 1.13002 1.13001 1.13001 1.13003
          1.13081 1.14451 1.14492 1.14572 1.14691 1.14851 1.15052 1.15297 1.15586 1.15923 1.16309 1.16745
          1.17233 1.17775 1.18371 1.19285 1.66051 1.13002 1.13003 1.13004 1.13004 1.13002 1.13001 1.13001
          1.13003 1.13076 1.14381 1.14419 1.14493 1.14603 1.1475 1.14934 1.15155 1.15415 1.15712 1.16046
          1.16414 1.16809 1.17216 1.17604 1.17885 1.17922 1.13 1.13 1.13 1.13001 1.13001 1.13001
          1.13001 1.13003 1.13071 1.14303 1.14338 1.14406 1.14506 1.14639 1.14805 1.15003 1.15231 1.15489
          1.15773 1.16076 1.16389 1.16693 1.16957 1.17129 1.17147 1.12997 1.12997 1.12997 1.12998 1.13001
          1.13001 1.13001 1.13003 1.13066 1.14221 1.14253 1.14314 1.14405 1.14524 1.14671 1.14845 1.15044
          1.15265 1.15503 1.15751 1.15998 1.16228 1.16417 1.16539 1.16574 1.12995 1.12995 1.12995 1.12995
          1.13001 1.13001 1.13001 1.13003 1.1306 1.14136 1.14165 1.1422 1.14301 1.14407 1.14537 1.14689
          1.14861 1.15048 1.15247 1.15449 1.15645 1.15822 1.15964 1.16055 1.16085 1.12992 1.12993 1.12993
          1.12993 1.13 1.13001 1.13001 1.13003 1.13054 1.14051 1.14077 1.14127 1.14199 1.14294 1.14408
          1.1454 1.14687 1.14846 1.15012 1.15177 1.15334 1.15472 1.15581 1.15651 1.15675 1.12991 1.12991
          1.12991 1.12992 1.13 1.13001 1.13001 1.13002 1.13049 1.13967 1.13991 1.14036 1.14102 1.14185
          1.14286 1.14401 1.14528 1.14663 1.14802 1.14938 1.15065 1.15175 1.15261 1.15316 1.15334 1.1299
          1.1299 1.12991 1.12991 1.13 1.13001 1.13001 1.13002 1.13044 1.13886 1.13908 1.1395 1.1401
          1.14086 1.14175 1.14277 1.14387 1.14502 1.14619 1.14733 1.14837 1.14927 1.14996 1.1504 1.15055
          1.12989 1.1299 1.12991 1.12993 1.12999 1.13001 1.13001 1.13002 1.13039 1.13806 1.13829 1.1387
          1.13927 1.13997 1.14078 1.14168 1.14265 1.14366 1.14466 1.14563 1.1465 1.14725 1.14782 1.14818
          1.1483 1.12988 1.1299 1.12994 1.12997 1.12999 1.13001 1.13002 1.13002 1.13034 1.13728 1.13755
          1.13798 1.13854 1.13921 1.13996 1.14079 1.14166 1.14255 1.14343 1.14427 1.14503 1.14567 1.14615
          1.14645 1.14656 1.12987 1.1299 1.12998 1.13008 1.13001 1.13006 1.1301 1.13015 1.13045 1.13646
          1.13684 1.13735 1.13794 1.1386 1.13932 1.14009 1.14089 1.14171 1.14251 1.14326 1.14394 1.1445
          1.14493 1.1452 1.14529 1.12982 1.12986 1.13001 1.13032 1.13096 1.13165 1.13241 1.13327 1.13427
          1.13547 1.13622 1.13686 1.13749 1.13816 1.13886 1.1396 1.14037 1.14114 1.14189 1.14259 1.14322
          1.14374 1.14414 1.14439 1.14447 1.1297 1.12975 1.12992 1.13026 1.13083 1.13149 1.13225 1.13311
          1.13407 1.13511 1.13591 1.13659 1.13724 1.1379 1.1386 1.13933 1.14008 1.14084 1.14157 1.14226
          1.14288 1.14339 1.14377 1.14401 1.14409
        </DataArray>
        <DataArray type="Float32" Name="saturation_liquid" NumberOfComponents="1" format="ascii">
          0 0 0 0 0 0 0 0 0 0 0 0
          0 0 0 0 0 0 0 0 1.84253e-38 0 8.23817e-35 3.35826e-35
          2.3862e-31 1.01534e-31 4.97016e-28 2.20894e-28 7.85835e-25 3.651e-25 9.73149e-22 4.73114e-22 9.61715e-19 4.89882e-19 7.66587e-16 4.09798e-16
          4.95066e-13 2.78313e-13 2.58694e-10 1.53316e-10 1.08564e-07 6.79808e-08 3.60891e-05 2.38551e-05 0.00926862 0.00638116 0.664511 0.562363
          1 0.999999 0 0 0 0 0 0 0 0 0 0
          0 1.65639e-35 5.19051e-32 1.17209e-28 2.01453e-25 2.72102e-22 2.9454e-19 2.58539e-16 1.8511e-13 1.08136e-10 5.1203e-08 1.93372e-05
          0.00562306 0.556524 0.999999 0 0 0 0 0 0 0 0 0
          0 0 4.42788e-36 1.46685e-32 3.51109e-29 6.41877e-26 9.26172e-23 1.07687e-19 1.02243e-16 7.9904e-14 5.15652e-11 2.74071e-08
          1.18605e-05 0.0040543 0.518117 1 0 0 0 0 0 0 0 0
          0 0 0 1.68065e-37 6.06989e-34 1.59537e-30 3.23185e-27 5.22669e-24 6.90879e-21 7.58981e-18 7.01529e-15 5.5041e-12
          3.68479e-09 2.10392e-06 0.00100987 0.280381 0.999988 0 0 0 0 0 0 0
          0 0 0 0 0 0 6.44415e-36 1.45572e-32 2.64623e-29 3.9684e-26 5.00124e-23 5.37814e-20
          5.00843e-17 4.11595e-14 3.08871e-11 2.30752e-08 2.33734e-05 0.20001 0 0 0 0 0 0
          0 0 0 0 0 0 0 0 0 0 0 0
          0 0 0 0 0 0 0 0 0 0 0 0
          0 0 0 0 0 0 0 0 0 0 0 0
          0 0 0 0 0 0 0 0 0 0 0 0
          0 0 0 0 0 0 0 0 0 0 0 0
          0 0 0 0 0 0 0 0 0 0 0 0
          0 0 0 0 0 0 0 0 0 0 0 0
          0 0 0 0 0 0 0 0 0 0 0 0
          0 0 0 0 0 0 0 0 0 0 0 0
          0 0 0 0 0 0 0 0 0 0 0 0
          0 0 0 0 0 0 0 0 0 0 0 0
          0 0 0 0 0 0 0 0 0 0 0 0
          0 0 0 0 0 0 0 0 0 0 0 0
          0 0 0 0 0 0 0 0 0 0 0 0
          0 0 0 0 0 0 0 0 0 0 0 0
          0 0 0 0 0 0 0 0 0 0 0 0
          0 0 0 0 0 0 0 0 0 0 0 0
          0 0 0 0 0 0 0 0 0 0 0 0
          0 0 0 0 0 0 0 0 0 0 0 0
          0 0 0 0 0 0 0 0 0 0 0 0
          0 0 0 0 0 0 0 0 0 0 0 0
          0 0 0 0 0 0 0 0 0 0 0 0
          0 0 0 0 0
        </DataArray>
        <DataArray type="Float32" Name="saturation_gas" NumberOfComponents="1" format="ascii">
          1 1 1 1 1 1 1 1 1 1 1 1
          1 1 1 1 1 1 1 1 1 1 1 1
          1 1 1 1 1 1 1 1 1 1 1 1
          1 1 1 1 1 1 0.999964 0.999976 0.990731 0.993619 0.335489 0.437637
          3.20957e-07 6.14061e-07 1 1 1 1 1 1 1 1 1 1
          1 1 1 1 1 1 1 1 1 1 1 0.999981
          0.994377 0.443476 5.26941e-07 1 1 1 1 1 1 1 1 1
          1 1 1 1 1 1 1 1 1 1 1 1
          0.999988 0.995946 0.481883 2.94253e-07 1 1 1 1 1 1 1 1
          1 1 1 1 1 1 1 1 1 1 1 1
          1 0.999998 0.99899 0.719619 1.19893e-05 1 1 1 1 1 1 1
          1 1 1 1 1 1 1 1 1 1 1 1
          1 1 1 1 0.999977 0.79999 1 1 1 1 1 1
          1 1 1 1 1 1 1 1 1 1 1 1
          1 1 1 1 1 1 1 1 1 1 1 1
          1 1 1 1 1 1 1 1 1 1 1 1
          1 1 1 1 1 1 1 1 1 1 1 1
          1 1 1 1 1 1 1 1 1 1 1 1
          1 1 1 1 1 1 1 1 1 1 1 1
          1 1 1 1 1 1 1 1 1 1 1 1
          1 1 1 1 1 1 1 1 1 1 1 1
          1 1 1 1 1 1 1 1 1 1 1 1
          1 1 1 1 1 1 1 1 1 1 1 1
          1 1 1 1 1 1 1 1 1 1 1 1
          1 1 1 1 1 1 1 1 1 1 1 1
          1 1 1 1 1 1 1 1 1 1 1 1
          1 1 1 1 1 1 1 1 1 1 1 1
          1 1 1 1 1 1 1 1 1 1 1 1
          1 1 1 1 1 1 1 1 1 1 1 1
          1 1 1 1 1 1 1 1 1 1 1 1
          1 1 1 1 1 1 1 1 1 1 1 1
          1 1 1 1 1 1 1 1 1 1 1 1
          1 1 1 1 1 1 1 1 1 1 1 1
          1 1 1 1 1 1 1 1 1 1 1 1
          1 1 1 1 1 1 1 1 1 1 1 1
          1 1 1 1 1
        </DataArray>
        <DataArray type="Float32" Name="relativePerm_liquid" NumberOfComponents="1" format="ascii">
          0 0 0 0 0 0 0 0 0 0 0 0
          0 0 0 0 0 0 0 0 1.84253e-38 0 8.23817e-35 3.35826e-35
          2.3862e-31 1.01534e-31 4.97016e-28 2.20894e-28 7.85835e-25 3.651e-25 9.73149e-22 4.73114e-22 9.61715e-19 4.89882e-19 7.66587e-16 4.09798e-16
          4.95066e-13 2.78313e-13 2.58694e-10 1.53316e-10 1.08564e-07 6.79808e-08 3.60891e-05 2.38551e-05 0.00926862 0.00638116 0.664511 0.562363
          1 0.999999 0 0 0 0 0 0 0 0 0 0
          0 1.65639e-35 5.19051e-32 1.17209e-28 2.01453e-25 2.72102e-22 2.9454e-19 2.58539e-16 1.8511e-13 1.08136e-10 5.1203e-08 1.93372e-05
          0.00562306 0.556524 0.999999 0 0 0 0 0 0 0 0 0
          0 0 4.42788e-36 1.46685e-32 3.51109e-29 6.41877e-26 9.26172e-23 1.07687e-19 1.02243e-16 7.9904e-14 5.15652e-11 2.74071e-08
          1.18605e-05 0.0040543 0.518117 1 0 0 0 0 0 0 0 0
          0 0 0 1.68065e-37 6.06989e-34 1.59537e-30 3.23185e-27 5.22669e-24 6.90879e-21 7.58981e-18 7.01529e-15 5.5041e-12
          3.68479e-09 2.10392e-06 0.00100987 0.280381 0.999988 0 0 0 0 0 0 0
          0 0 0 0 0 0 6.44415e-36 1.45572e-32 2.64623e-29 3.9684e-26 5.00124e-23 5.37814e-20
          5.00843e-17 4.11595e-14 3.08871e-11 2.30752e-08 2.33734e-05 0.20001 0 0 0 0 0 0
          0 0 0 0 0 0 0 0 0 0 0 0
          0 0 0 0 0 0 0 0 0 0 0 0
          0 0 0 0 0 0 0 0 0 0 0 0
          0 0 0 0 0 0 0 0 0 0 0 0
          0 0 0 0 0 0 0 0 0 0 0 0
          0 0 0 0 0 0 0 0 0 0 0 0
          0 0 0 0 0 0 0 0 0 0 0 0
          0 0 0 0 0 0 0 0 0 0 0 0
          0 0 0 0 0 0 0 0 0 0 0 0
          0 0 0 0 0 0 0 0 0 0 0 0
          0 0 0 0 0 0 0 0 0 0 0 0
          0 0 0 0 0 0 0 0 0 0 0 0
          0 0 0 0 0 0 0 0 0 0 0 0
          0 0 0 0 0 0 0 0 0 0 0 0
          0 0 0 0 0 0 0 0 0 0 0 0
          0 0 0 0 0 0 0 0 0 0 0 0
          0 0 0 0 0 0 0 0 0 0 0 0
          0 0 0 0 0 0 0 0 0 0 0 0
          0 0 0 0 0 0 0 0 0 0 0 0
          0 0 0 0 0 0 0 0 0 0 0 0
          0 0 0 0 0 0 0 0 0 0 0 0
          0 0 0 0 0 0 0 0 0 0 0 0
          0 0 0 0 0
        </DataArray>
        <DataArray type="Float32" Name="relativePerm_gas" NumberOfComponents="1" format="ascii">
          1 1 1 1 1 1 1 1 1 1 1 1
          1 1 1 1 1 1 1 1 1 1 1 1
          1 1 1 1 1 1 1 1 1 1 1 1
          1 1 1 1 1 1 0.999964 0.999976 0.990731 0.993619 0.335489 0.437637
          3.20957e-07 6.14061e-07 1 1 1 1 1 1 1 1 1 1
          1 1 1 1 1 1 1 1 1 1 1 0.999981
          0.994377 0.443476 5.26941e-07 1 1 1 1 1 1 1 1 1
          1 1 1 1 1 1 1 1 1 1 1 1
          0.999988 0.995946 0.481883 2.94253e-07 1 1 1 1 1 1 1 1
          1 1 1 1 1 1 1 1 1 1 1 1
          1 0.999998 0.99899 0.719619 1.19893e-05 1 1 1 1 1 1 1
          1 1 1 1 1 1 1 1 1 1 1 1
          1 1 1 1 0.999977 0.79999 1 1 1 1 1 1
          1 1 1 1 1 1 1 1 1 1 1 1
          1 1 1 1 1 1 1 1 1 1 1 1
          1 1 1 1 1 1 1 1 1 1 1 1
          1 1 1 1 1 1 1 1 1 1 1 1
          1 1 1 1 1 1 1 1 1 1 1 1
          1 1 1 1 1 1 1 1 1 1 1 1
          1 1 1 1 1 1 1 1 1 1 1 1
          1 1 1 1 1 1 1 1 1 1 1 1
          1 1 1 1 1 1 1 1 1 1 1 1
          1 1 1 1 1 1 1 1 1 1 1 1
          1 1 1 1 1 1 1 1 1 1 1 1
          1 1 1 1 1 1 1 1 1 1 1 1
          1 1 1 1 1 1 1 1 1 1 1 1
          1 1 1 1 1 1 1 1 1 1 1 1
          1 1 1 1 1 1 1 1 1 1 1 1
          1 1 1 1 1 1 1 1 1 1 1 1
          1 1 1 1 1 1 1 1 1 1 1 1
          1 1 1 1 1 1 1 1 1 1 1 1
          1 1 1 1 1 1 1 1 1 1 1 1
          1 1 1 1 1 1 1 1 1 1 1 1
          1 1 1 1 1 1 1 1 1 1 1 1
          1 1 1 1 1 1 1 1 1 1 1 1
          1 1 1 1 1
        </DataArray>
        <DataArray type="Float32" Name="porosity" NumberOfComponents="1" format="ascii">
          0.3 0.3 0.3 0.3 0.3 0.3 0.3 0.3 0.3 0.3 0.3 0.3
          0.3 0.3 0.3 0.3 0.3 0.3 0.3 0.3 0.3 0.3 0.3 0.3
          0.3 0.3 0.3 0.3 0.3 0.3 0.3 0.3 0.3 0.3 0.3 0.3
          0.3 0.3 0.3 0.3 0.3 0.3 0.3 0.3 0.3 0.3 0.3 0.3
          0.3 0.3 0.3 0.3 0.3 0.3 0.3 0.3 0.3 0.3 0.3 0.3
          0.3 0.3 0.3 0.3 0.3 0.3 0.3 0.3 0.3 0.3 0.3 0.3
          0.3 0.3 0.3 0.3 0.3 0.3 0.3 0.3 0.3 0.3 0.3 0.3
          0.3 0.3 0.3 0.3 0.3 0.3 0.3 0.3 0.3 0.3 0.3 0.3
          0.3 0.3 0.3 0.3 0.3 0.3 0.3 0.3 0.3 0.3 0.3 0.3
          0.3 0.3 0.3 0.3 0.3 0.3 0.3 0.3 0.3 0.3 0.3 0.3
          0.3 0.3 0.3 0.3 0.3 0.3 0.3 0.3 0.3 0.3 0.3 0.3
          0.3 0.3 0.3 0.3 0.3 0.3 0.3 0.3 0.3 0.3 0.3 0.3
          0.3 0.3 0.3 0.3 0.3 0.3 0.3 0.3 0.3 0.3 0.3 0.3
          0.3 0.3 0.3 0.3 0.3 0.3 0.3 0.3 0.3 0.3 0.3 0.3
          0.3 0.3 0.3 0.3 0.3 0.3 0.3 0.3 0.3 0.3 0.3 0.3
          0.3 0.3 0.3 0.3 0.3 0.3 0.3 0.3 0.3 0.3 0.3 0.3
          0.3 0.3 0.3 0.3 0.3 0.3 0.3 0.3 0.3 0.3 0.3 0.3
          0.3 0.3 0.3 0.3 0.3 0.3 0.3 0.3 0.3 0.3 0.3 0.3
          0.3 0.3 0.3 0.3 0.3 0.3 0.3 0.3 0.3 0.3 0.3 0.3
          0.3 0.3 0.3 0.3 0.3 0.3 0.3 0.3 0.3 0.3 0.3 0.3
          0.3 0.3 0.3 0.3 0.3 0.3 0.3 0.3 0.3 0.3 0.3 0.3
          0.3 0.3 0.3 0.3 0.3 0.3 0.3 0.3 0.3 0.3 0.3 0.3
          0.3 0.3 0.3 0.3 0.3 0.3 0.3 0.3 0.3 0.3 0.3 0.3
          0.3 0.3 0.3 0.3 0.3 0.3 0.3 0.3 0.3 0.3 0.3 0.3
          0.3 0.3 0.3 0.3 0.3 0.3 0.3 0.3 0.3 0.3 0.3 0.3
          0.3 0.3 0.3 0.3 0.3 0.3 0.3 0.3 0.3 0.3 0.3 0.3
          0.3 0.3 0.3 0.3 0.3 0.3 0.3 0.3 0.3 0.3 0.3 0.3
          0.3 0.3 0.3 0.3 0.3 0.3 0.3 0.3 0.3 0.3 0.3 0.3
          0.3 0.3 0.3 0.3 0.3 0.3 0.3 0.3 0.3 0.3 0.3 0.3
          0.3 0.3 0.3 0.3 0.3 0.3 0.3 0.3 0.3 0.3 0.3 0.3
          0.3 0.3 0.3 0.3 0.3 0.3 0.3 0.3 0.3 0.3 0.3 0.3
          0.3 0.3 0.3 0.3 0.3 0.3 0.3 0.3 0.3 0.3 0.3 0.3
          0.3 0.3 0.3 0.3 0.3 0.3 0.3 0.3 0.3 0.3 0.3 0.3
          0.3 0.3 0.3 0.3 0.3 0.3 0.3 0.3 0.3 0.3 0.3 0.3
          0.3 0.3 0.3 0.3 0.3 0.3 0.3 0.3 0.3 0.3 0.3 0.3
          0.3 0.3 0.3 0.3 0.3
        </DataArray>
        <DataArray type="Float32" Name="temperature" NumberOfComponents="1" format="ascii">
          298.15 298.15 298.15 298.15 298.15 298.15 298.15 298.15 298.15 298.15 298.15 298.15
          298.15 298.15 298.15 298.15 298.15 298.15 298.15 298.15 298.15 298.15 298.15 298.15
          298.15 298.15 298.15 298.15 298.15 298.15 298.15 298.15 298.15 298.15 298.15 298.15
          298.15 298.15 298.15 298.15 298.15 298.15 298.15 298.15 298.15 298.15 298.15 298.15
          298.15 298.15 298.15 298.15 298.15 298.15 298.15 298.15 298.15 298.15 298.15 298.15
          298.15 298.15 298.15 298.15 298.15 298.15 298.15 298.15 298.15 298.15 298.15 298.15
          298.15 298.15 298.15 298.15 298.15 298.15 298.15 298.15 298.15 298.15 298.15 298.15
          298.15 298.15 298.15 298.15 298.15 298.15 298.15 298.15 298.15 298.15 298.15 298.15
          298.15 298.15 298.15 298.15 298.15 298.15 298.15 298.15 298.15 298.15 298.15 298.15
          298.15 298.15 298.15 298.15 298.15 298.15 298.15 298.15 298.15 298.15 298.15 298.15
          298.15 298.15 298.15 298.15 298.15 298.15 298.15 298.15 298.15 298.15 298.15 298.15
          298.15 298.15 298.15 298.15 298.15 298.15 298.15 298.15 298.15 298.15 298.15 298.15
          298.15 298.15 298.15 298.15 298.15 298.15 298.15 298.15 298.15 298.15 298.15 298.15
          298.15 298.15 298.15 298.15 298.15 298.15 298.15 298.15 298.15 298.15 298.15 298.15
          298.15 298.15 298.15 298.15 298.15 298.15 298.15 298.15 298.15 298.15 298.15 298.15
          298.15 298.15 298.15 298.15 298.15 298.15 298.15 298.15 298.15 298.15 298.15 298.15
          298.15 298.15 298.15 298.15 298.15 298.15 298.15 298.15 298.15 298.15 298.15 298.15
          298.15 298.15 298.15 298.15 298.15 298.15 298.15 298.15 298.15 298.15 298.15 298.15
          298.15 298.15 298.15 298.15 298.15 298.15 298.15 298.15 298.15 298.15 298.15 298.15
          298.15 298.15 298.15 298.15 298.15 298.15 298.15 298.15 298.15 298.15 298.15 298.15
          298.15 298.15 298.15 298.15 298.15 298.15 298.15 298.15 298.15 298.15 298.15 298.15
          298.15 298.15 298.15 298.15 298.15 298.15 298.15 298.15 298.15 298.15 298.15 298.15
          298.15 298.15 298.15 298.15 298.15 298.15 298.15 298.15 298.15 298.15 298.15 298.15
          298.15 298.15 298.15 298.15 298.15 298.15 298.15 298.15 298.15 298.15 298.15 298.15
          298.15 298.15 298.15 298.15 298.15 298.15 298.15 298.15 298.15 298.15 298.15 298.15
          298.15 298.15 298.15 298.15 298.15 298.15 298.15 298.15 298.15 298.15 298.15 298.15
          298.15 298.15 298.15 298.15 298.15 298.15 298.15 298.15 298.15 298.15 298.15 298.15
          298.15 298.15 298.15 298.15 298.15 298.15 298.15 298.15 298.15 298.15 298.15 298.15
          298.15 298.15 298.15 298.15 298.15 298.15 298.15 298.15 298.15 298.15 298.15 298.15
          298.15 298.15 298.15 298.15 298.15 298.15 298.15 298.15 298.15 298.15 298.15 298.15
          298.15 298.15 298.15 298.15 298.15 298.15 298.15 298.15 298.15 298.15 298.15 298.15
          298.15 298.15 298.15 298.15 298.15 298.15 298.15 298.15 298.15 298.15 298.15 298.15
          298.15 298.15 298.15 298.15 298.15 298.15 298.15 298.15 298.15 298.15 298.15 298.15
          298.15 298.15 298.15 298.15 298.15 298.15 298.15 298.15 298.15 298.15 298.15 298.15
          298.15 298.15 298.15 298.15 298.15 298.15 298.15 298.15 298.15 298.15 298.15 298.15
          298.15 298.15 298.15 298.15 298.15
        </DataArray>
      </PointData>
      <Points>
        <DataArray type="Float32" Name="Coordinates" NumberOfComponents="3" format="ascii">
          0 0 0 2.5 0 0 0 2.5 0 2.5 2.5 0
          5 0 0 5 2.5 0 7.5 0 0 7.5 2.5 0
          10 0 0 10 2.5 0 12.5 0 0 12.5 2.5 0
          15 0 0 15 2.5 0 17.5 0 0 17.5 2.5 0
          20 0 0 20 2.5 0 22.5 0 0 22.5 2.5 0
          25 0 0 25 2.5 0 27.5 0 0 27.5 2.5 0
          30 0 0 30 2.5 0 32.5 0 0 32.5 2.5 0
          35 0 0 35 2.5 0 37.5 0 0 37.5 2.5 0
          40 0 0 40 2.5 0 42.5 0 0 42.5 2.5 0
          45 0 0 45 2.5 0 47.5 0 0 47.5 2.5 0
          50 0 0 50 2.5 0 52.5 0 0 52.5 2.5 0
          55 0 0 55 2.5 0 57.5 0 0 57.5 2.5 0
          60 0 0 60 2.5 0 0 5 0 2.5 5 0
          5 5 0 7.5 5 0 10 5 0 12.5 5 0
          15 5 0 17.5 5 0 20 5 0 22.5 5 0
          25 5 0 27.5 5 0 30 5 0 32.5 5 0
          35 5 0 37.5 5 0 40 5 0 42.5 5 0
          45 5 0 47.5 5 0 50 5 0 52.5 5 0
          55 5 0 57.5 5 0 60 5 0 0 7.5 0
          2.5 7.5 0 5 7.5 0 7.5 7.5 0 10 7.5 0
          12.5 7.5 0 15 7.5 0 17.5 7.5 0 20 7.5 0
          22.5 7.5 0 25 7.5 0 27.5 7.5 0 30 7.5 0
          32.5 7.5 0 35 7.5 0 37.5 7.5 0 40 7.5 0
          42.5 7.5 0 45 7.5 0 47.5 7.5 0 50 7.5 0
          52.5 7.5 0 55 7.5 0 57.5 7.5 0 60 7.5 0
          0 10 0 2.5 10 0 5 10 0 7.5 10 0
          10 10 0 12.5 10 0 15 10 0 17.5 10 0
          20 10 0 22.5 10 0 25 10 0 27.5 10 0
          30 10 0 32.5 10 0 35 10 0 37.5 10 0
          40 10 0 42.5 10 0 45 10 0 47.5 10 0
          50 10 0 52.5 10 0 55 10 0 57.5 10 0
          60 10 0 0 12.5 0 2.5 12.5 0 5 12.5 0
          7.5 12.5 0 10 12.5 0 12.5 12.5 0 15 12.5 0
          17.5 12.5 0 20 12.5 0 22.5 12.5 0 25 12.5 0
          27.5 12.5 0 30 12.5 0 32.5 12.5 0 35 12.5 0
          37.5 12.5 0 40 12.5 0 42.5 12.5 0 45 12.5 0
          47.5 12.5 0 50 12.5 0 52.5 12.5 0 55 12.5 0
          57.5 12.5 0 60 12.5 0 0 15 0 2.5 15 0
          5 15 0 7.5 15 0 10 15 0 12.5 15 0
          15 15 0 17.5 15 0 20 15 0 22.5 15 0
          25 15 0 27.5 15 0 30 15 0 32.5 15 0
          35 15 0 37.5 15 0 40 15 0 42.5 15 0
          45 15 0 47.5 15 0 50 15 0 52.5 15 0
          55 15 0 57.5 15 0 60 15 0 0 17.5 0
          2.5 17.5 0 5 17.5 0 7.5 17.5 0 10 17.5 0
          12.5 17.5 0 15 17.5 0 17.5 17.5 0 20 17.5 0