<?xml version="1.0"?>
<VTKFile type="UnstructuredGrid" version="0.1" byte_order="LittleEndian">
  <UnstructuredGrid>
    <Piece NumberOfCells="384" NumberOfPoints="425">
      <PointData Scalars="pressure_liquid">
        <DataArray type="Float32" Name="pressure_liquid" NumberOfComponents="1" format="ascii">
          100014 100048 100006 100028 100065 100042 100073 100049 100005 100003 100002 100000
          100002 100000 100002 100000 100024 100021 100824 100792 100873 100840 100970 100936
          101120 101084 101326 101288 101596 101555 101937 101891 102356 102304 102862 102802
          103464 103395 104175 104092 105007 104907 105982 105858 107131 106977 109329 108921
          185979 182109 100004 100017 100027 100032 100002 100000 100000 100000 100020 100752
          100799 100892 101035 101232 101489 101812 102208 102684 103247 103905 104669 105554
          106587 108370 181556 100002 100010 100016 100019 100001 100000 100000 100000 100018
          100705 100749 100837 100973 101159 101400 101703 102072 102513 103031 103629 104313
          105092 105984 107486 179877 100001 100005 100008 100010 100001 100000 100000 100000
          100016 100652 100693 100775 100900 101072 101294 101571 101906 102303 102763 103286
          103869 104509 105204 106139 162027 99998.9 100000 100001 100002 100000 100000 100000
          100000 100015 100594 100632 100706 100819 100974 101174 101421 101718 102066 102463
          102904 103379 103868 104331 104667 104642 99993.8 99994.2 99994.9 99995.4 100000 100000
          100000 100000 100013 100534 100567 100633 100734 100871 101047 101263 101520 101818
          102151 102514 102891 103259 103580 103792 103823 99987.5 99987.6 99987.9 99988.2 99999.7
          100000 100000 100000 100011 100472 100501 100559 100647 100766 100918 101103 101322
          101571 101846 102138 102434 102712 102944 103095 103139 99980.1 99980.2 99980.3 99980.5
          99999.5 100000 100000 100000 100009 100410 100435 100485 100561 100663 100792 100948
          101130 101335 101559 101792 102022 102234 102405 102517 102554 99971.7 99971.7 99971.8
          99971.9 99999.2 100000 100000 100000 100008 100349 100371 100413 100478 100564 100672
          100802 100952 101119 101298 101483 101662 101823 101951 102035 102063 99962 99962
          99962.2 99962.3 99998.9 100000 100000 100000 100006 100291 100309 100345 100399 100471
          100561 100668 100791 100926 101069 101214 101352 101476 101573 101636 101657 99950.8
          99950.9 99951.2 99951.4 99998.4 100000 100000 100000 100005 100235 100251 100282 100327
          100387 100462 100550 100649 100758 100872 100986 101094 101189 101263 101310 101327
          99938 99938.2 99938.7 99939.2 99998 100000 100000 100000 100003 100183 100197 100223
          100262 100313 100375 100447 100528 100616 100708 100798 100883 100957 101014 101051
          101063 99923 99923.5 99924.6 99925.8 99997.3 99999.9 100000 100000 100002 100133 100146
          100170 100204 100248 100301 100361 100429 100501 100576 100649 100717 100776 100821
          100850 100860 99905.6 99906.4 99908.7 99911.8 99994.4 99998.1 99998.5 99998.9 99999.4 100085
          100100 100123 100155 100193 100240 100292 100350 100412 100475 100536 100593 100642
          100679 100703 100711 99884.7 99886 99890.3 99899.3 99918.5 99936.5 99955.1 99975.9 100001
          100033 100057 100083 100113 100149 100192 100240 100292 100348 100404 100458 100509
          100551 100584 100605 100612 99859.4 99860.9 99865.8 99875.4 99891.6 99909 99927.4 99947.9
          99971.9 99999.8 100025 100051 100081 100116 100157 100204 100254 100308 100362 100414
          100462 100503 100534 100554 100561
        </DataArray>
        <DataArray type="Float32" Name="pressure_gas" NumberOfComponents="1" format="ascii">
          100014 100048 100006 100028 100065 100042 100073 100049 100005 100003 100002 100000
          100002 100000 100002 100000 100024 100021 100824 100792 100873 100840 100970 100936
          101120 101084 101326 101288 101596 101555 101937 101891 102356 102304 102862 102802
          103464 103395 104175 104092 105007 104907 105982 105858 107131 106977 109329 108921
          185979 182109 100004 100017 100027 100032 100002 100000 100000 100000 100020 100752
          100799 100892 101035 101232 101489 101812 102208 102684 103247 103905 104669 105554
          106587 108370 181556 100002 100010 100016 100019 100001 100000 100000 100000 100018
          100705 100749 100837 100973 101159 101400 101703 102072 102513 103031 103629 104313
          105092 105984 107486 179877 100001 100005 100008 100010 100001 100000 100000 100000
          100016 100652 100693 100775 100900 101072 101294 101571 101906 102303 102763 103286
          103869 104509 105204 106139 162027 99998.9 100000 100001 100002 100000 100000 100000
          100000 100015 100594 100632 100706 100819 100974 101174 101421 101718 102066 102463
          102904 103379 103868 104331 104667 104642 99993.8 99994.2 99994.9 99995.4 100000 100000
          100000 100000 100013 100534 100567 100633 100734 100871 101047 101263 101520 101818
          102151 102514 102891 103259 103580 103792 103823 99987.5 99987.6 99987.9 99988.2 99999.7
          100000 100000 100000 100011 100472 100501 100559 100647 100766 100918 101103 101322
          101571 101846 102138 102434 102712 102944 103095 103139 99980.1 99980.2 99980.3 99980.5
          99999.5 100000 100000 100000 100009 100410 100435 100485 100561 100663 100792 100948
          101130 101335 101559 101792 102022 102234 102405 102517 102554 99971.7 99971.7 99971.8
          99971.9 99999.2 100000 100000 100000 100008 100349 100371 100413 100478 100564 100672
          100802 100952 101119 101298 101483 101662 101823 101951 102035 102063 99962 99962
          99962.2 99962.3 99998.9 100000 100000 100000 100006 100291 100309 100345 100399 100471
          100561 100668 100791 100926 101069 101214 101352 101476 101573 101636 101657 99950.8
          99950.9 99951.2 99951.4 99998.4 100000 100000 100000 100005 100235 100251 100282 100327
          100387 100462 100550 100649 100758 100872 100986 101094 101189 101263 101310 101327
          99938 99938.2 99938.7 99939.2 99998 100000 100000 100000 100003 100183 100197 100223
          100262 100313 100375 100447 100528 100616 100708 100798 100883 100957 101014 101051
          101063 99923 99923.5 99924.6 99925.8 99997.3 99999.9 100000 100000 100002 100133 100146
          100170 100204 100248 100301 100361 100429 100501 100576 100649 100717 100776 100821
          100850 100860 99905.6 99906.4 99908.7 99911.8 99994.4 99998.1 99998.5 99998.9 99999.4 100085
          100100 100123 100155 100193 100240 100292 100350 100412 100475 100536 100593 100642
          100679 100703 100711 99884.7 99886 99890.3 99899.3 99918.5 99936.5 99955.1 99975.9 100001
          100033 100057 100083 100113 100149 100192 100240 100292 100348 100404 100458 100509
          100551 100584 100605 100612 99859.4 99860.9 99865.8 99875.4 99891.6 99909 99927.4 99947.9
          99971.9 99999.8 100025 100051 100081 100116 100157 100204 100254 100308 100362 100414
          100462 100503 100534 100554 100561
        </DataArray>
        <DataArray type="Float32" Name="density_liquid" NumberOfComponents="1" format="ascii">
          997.048 997.048 997.048 997.048 997.048 997.048 997.048 997.048 997.048 997.048 997.048 997.048
          997.048 997.048 997.048 997.048 997.048 997.048 997.048 997.048 997.048 997.048 997.048 997.048
          997.048 997.048 997.048 997.048 997.048 997.048 997.049 997.049 997.049 997.049 997.049 997.049
          997.049 997.049 997.05 997.049 997.05 997.05 997.05 997.05 997.051 997.051 997.052 997.052
          997.086 997.085 997.048 997.048 997.048 997.048 997.048 997.048 997.048 997.048 997.048 997.048
          997.048 997.048 997.048 997.048 997.048 997.048 997.049 997.049 997.049 997.049 997.05 997.05
          997.051 997.051 997.084 997.048 997.048 997.048 997.048 997.048 997.048 997.048 997.048 997.048
          997.048 997.048 997.048 997.048 997.048 997.048 997.048 997.049 997.049 997.049 997.049 997.05
          997.05 997.05 997.051 997.084 997.048 997.048 997.048 997.048 997.048 997.048 997.048 997.048
          997.048 997.048 997.048 997.048 997.048 997.048 997.048 997.048 997.049 997.049 997.049 997.049
          997.049 997.05 997.05 997.05 997.076 997.048 997.048 997.048 997.048 997.048 997.048 997.048
          997.048 997.048 997.048 997.048 997.048 997.048 997.048 997.048 997.048 997.048 997.049 997.049
          997.049 997.049 997.049 997.05 997.05 997.05 997.048 997.048 997.048 997.048 997.048 997.048
          997.048 997.048 997.048 997.048 997.048 997.048 997.048 997.048 997.048 997.048 997.048 997.048
          997.049 997.049 997.049 997.049 997.049 997.049 997.049 997.048 997.048 997.048 997.048 997.048
          997.048 997.048 997.048 997.048 997.048 997.048 997.048 997.048 997.048 997.048 997.048 997.048
          997.048 997.049 997.049 997.049 997.049 997.049 997.049 997.049 997.048 997.048 997.048 997.048
          997.048 997.048 997.048 997.048 997.048 997.048 997.048 997.048 997.048 997.048 997.048 997.048
          997.048 997.048 997.048 997.048 997.049 997.049 997.049 997.049 997.049 997.048 997.048 997.048
          997.048 997.048 997.048 997.048 997.048 997.048 997.048 997.048 997.048 997.048 997.048 997.048
          997.048 997.048 997.048 997.048 997.048 997.048 997.048 997.049 997.049 997.049 997.048 997.048
          997.048 997.048 997.048 997.048 997.048 997.048 997.048 997.048 997.048 997.048 997.048 997.048
          997.048 997.048 997.048 997.048 997.048 997.048 997.048 997.048 997.048 997.048 997.048 997.048
          997.048 997.048 997.048 997.048 997.048 997.048 997.048 997.048 997.048 997.048 997.048 997.048
          997.048 997.048 997.048 997.048 997.048 997.048 997.048 997.048 997.048 997.048 997.048 997.048
          997.048 997.048 997.048 997.048 997.048 997.048 997.048 997.048 997.048 997.048 997.048 997.048
          997.048 997.048 997.048 997.048 997.048 997.048 997.048 997.048 997.048 997.048 997.048 997.048
          997.048 997.048 997.048 997.048 997.048 997.048 997.048 997.048 997.048 997.048 997.048 997.048
          997.048 997.048 997.048 997.048 997.048 997.048 997.048 997.048 997.048 997.048 997.048 997.048
          997.048 997.048 997.048 997.048 997.048 997.048 997.048 997.048 997.048 997.048 997.048 997.048
          997.048 997.048 997.048 997.048 997.048 997.048 997.048 997.048 997.048 997.048 997.048 997.048
          997.048 997.048 997.048 997.048 997.048 997.048 997.048 997.048 997.048 997.048 997.048 997.048
          997.048 997.048 997.048 997.048 997.048 997.048 997.048 997.048 997.048 997.048 997.048 997.048
          997.048 997.048 997.048 997.048 997.048 997.048 997.048 997.048 997.048 997.048 997.048 997.048
          997.048 997.048 997.048 997.048 997.048 997.048 997.048 997.048 997.048 997.048 997.048 997.048
          997.048 997.048 997.048 997.048 997.048
        </DataArray>
        <DataArray type="Float32" Name="density_gas" NumberOfComponents="1" format="ascii">
          1.13017 1.13055 1.13008 1.13033 1.13075 1.13049 1.13084 1.13057 1.13007 1.13004 1.13003 1.13001
          1.13003 1.13001 1.13004 1.13002 1.13029 1.13026 1.13933 1.13897 1.13988 1.13951 1.14098 1.1406
          1.14267 1.14227 1.145 1.14457 1.14805 1.14759 1.1519 1.15138 1.15663 1.15605 1.16235 1.16168
          1.16916 1.16838 1.17719 1.17625 1.1866 1.18546 1.19761 1.19622 1.2106 1.20886 1.23543 1.23083
          2.10162 2.05789 1.13005 1.13021 1.13032 1.13037 1.13003 1.13001 1.13001 1.13002 1.13024 1.13851
          1.13904 1.14009 1.14171 1.14393 1.14684 1.15049 1.15496 1.16034 1.1667 1.17414 1.18278 1.19278
          1.20445 1.2246 2.05164 1.13004 1.13013 1.1302 1.13023 1.13003 1.13001 1.13001 1.13002 1.13022
          1.13798 1.13848 1.13948 1.141 1.14311 1.14584 1.14926 1.15343 1.15842 1.16426 1.17102 1.17876
          1.18756 1.19764 1.2146 2.03266 1.13003 1.13007 1.13011 1.13013 1.13002 1.13001 1.13001 1.13002
          1.1302 1.13738 1.13785 1.13877 1.14018 1.14212 1.14463 1.14776 1.15155 1.15604 1.16123 1.16714
          1.17373 1.18097 1.18882 1.19939 1.83095 1.13 1.13001 1.13003 1.13004 1.13002 1.13001 1.13001
          1.13002 1.13018 1.13673 1.13715 1.13799 1.13927 1.14103 1.14328 1.14608 1.14943 1.15336 1.15784
          1.16283 1.1682 1.17373 1.17896 1.18276 1.18247 1.12994 1.12995 1.12996 1.12996 1.13001 1.13001
          1.13001 1.13002 1.13016 1.13605 1.13642 1.13717 1.13831 1.13986 1.14185 1.14429 1.1472 1.15056
          1.15433 1.15842 1.16268 1.16685 1.17047 1.17286 1.17322 1.12987 1.12987 1.12988 1.12988 1.13001
          1.13001 1.13001 1.13002 1.13014 1.13534 1.13567 1.13633 1.13733 1.13867 1.14039 1.14248 1.14495
          1.14776 1.15087 1.15418 1.15752 1.16066 1.16328 1.16499 1.16549 1.12979 1.12979 1.12979 1.12979
          1.13001 1.13001 1.13001 1.13002 1.13012 1.13464 1.13493 1.1355 1.13635 1.1375 1.13896 1.14073
          1.14278 1.14511 1.14763 1.15026 1.15287 1.15526 1.1572 1.15845 1.15887 1.12969 1.12969 1.1297
          1.1297 1.13 1.13001 1.13001 1.13001 1.1301 1.13396 1.1342 1.13469 1.13541 1.13638 1.13761
          1.13907 1.14077 1.14266 1.14469 1.14677 1.14879 1.15061 1.15207 1.15301 1.15333 1.12958 1.12958
          1.12959 1.12959 1.13 1.13001 1.13001 1.13001 1.13008 1.1333 1.13351 1.13392 1.13453 1.13534
          1.13636 1.13757 1.13895 1.14047 1.14209 1.14373 1.1453 1.14669 1.14779 1.1485 1.14874 1.12946
          1.12946 1.12946 1.12946 1.13 1.13001 1.13001 1.13001 1.13007 1.13267 1.13285 1.1332 1.13371
          1.13439 1.13523 1.13623 1.13735 1.13858 1.13986 1.14115 1.14237 1.14345 1.14429 1.14482 1.14501
          1.12931 1.12932 1.12932 1.12933 1.12999 1.13001 1.13001 1.13001 1.13005 1.13208 1.13224 1.13254
          1.13298 1.13355 1.13425 1.13507 1.13599 1.13698 1.13801 1.13903 1.13999 1.14083 1.14147 1.14189
          1.14203 1.12914 1.12915 1.12916 1.12918 1.12998 1.13001 1.13001 1.13001 1.13003 1.13152 1.13167
          1.13194 1.13232 1.13282 1.13341 1.1341 1.13486 1.13568 1.13652 1.13735 1.13812 1.13878 1.13929
          1.13962 1.13973 1.12895 1.12896 1.12898 1.12902 1.12995 1.12999 1.13 1.13 1.13001 1.13097
          1.13114 1.13141 1.13176 1.1322 1.13272 1.13332 1.13397 1.13467 1.13538 1.13608 1.13672 1.13727
          1.13769 1.13795 1.13805 1.12871 1.12873 1.12877 1.12888 1.12909 1.1293 1.12951 1.12974 1.13002
          1.13039 1.13066 1.13095 1.13129 1.1317 1.13218 1.13272 1.13332 1.13394 1.13458 1.13519 1.13576
          1.13624 1.13662 1.13685 1.13693 1.12842 1.12844 1.1285 1.12861 1.12879 1.12899 1.12919 1.12943
          1.1297 1.13001 1.13029 1.13059 1.13093 1.13133 1.13179 1.13232 1.13289 1.13349 1.1341 1.13469
          1.13523 1.1357 1.13605 1.13627 1.13635
        </DataArray>
        <DataArray type="Float32" Name="saturation_liquid" NumberOfComponents="1" format="ascii">
          0 0 0 0 0 0 0 0 0 0 0 0
          0 0 0 0 0 0 4.2039e-45 1.4013e-45 6.07785e-41 2.33414e-41 4.94767e-37 1.98988e-37
          2.49978e-33 1.0539e-33 8.68537e-30 3.84226e-30 2.17968e-26 1.01288e-26 4.06239e-23 1.98515e-23 5.72387e-20 2.94467e-20 6.17771e-17 3.34953e-17
          5.16658e-14 2.95553e-14 3.38792e-11 2.04701e-11 1.76369e-08 1.12696e-08 7.36334e-06 4.98359e-06 0.00245472 0.00176391 0.392578 0.328876
          0.999995 0.999991 0 0 0 0 0 0 0 0 0 0
          1.08278e-41 9.63223e-38 5.33288e-34 2.03615e-30 5.63428e-27 1.1623e-23 1.82035e-20 2.19369e-17 2.05812e-14 1.52124e-11 8.97008e-09 4.26331e-06
          0.00162726 0.328333 0.999992 0 0 0 0 0 -0 0 0 0
          0 2.63865e-42 2.50998e-38 1.48966e-34 6.11733e-31 1.82827e-27 4.09435e-24 7.00317e-21 9.28189e-18 9.65552e-15 7.98803e-12 5.33117e-09
          2.90676e-06 0.00129247 0.312813 0.999996 0 0 0 0 0 -0 0 0
          0 0 9.66896e-44 1.00242e-39 6.55668e-36 2.98705e-32 9.99158e-29 2.53321e-25 4.97849e-22 7.72731e-19 9.64715e-16 9.8846e-13
          8.50513e-10 6.29117e-07 0.000404721 0.179513 0.99993 0 0 0 0 0 0 0
          0 0 0 0 0 2.42985e-42 1.28533e-38 5.0685e-35 1.54408e-31 3.73031e-28 7.3033e-25 1.18147e-21
          1.60746e-18 1.86802e-15 1.8762e-12 1.64282e-09 1.29777e-06 0.0946091 0 0 0 0 0 0
          0 0 0 0 0 0 0 0 0 0 0 0
          0 0 0 0 0 0 0 0 0 0 0 0
          0 0 0 0 0 0 0 0 0 0 0 0
          0 0 0 0 0 0 0 0 0 0 0 0
          0 0 0 0 0 0 0 0 0 0 0 0
          0 0 0 0 0 0 0 0 0 0 0 0
          0 0 0 0 0 0 0 0 0 0 0 0
          0 0 0 0 0 0 0 0 0 0 0 0
          0 0 0 0 0 0 0 0 0 0 0 0
          0 0 0 0 0 0 0 0 0 0 0 0
          0 0 0 0 0 0 0 0 0 0 0 0
          0 0 0 0 0 0 0 0 0 0 0 0
          0 0 0 0 0 0 0 0 0 0 0 0
          0 0 0 0 0 0 0 0 0 0 0 0
          0 0 0 0 0 0 0 0 0 0 0 0
          0 0 0 0 0 0 0 0 0 0 0 0
          0 0 0 0 0 0 0 0 0 0 0 0
          0 0 0 0 0 0 0 0 0 0 0 0
          0 0 0 0 0 0 0 0 0 0 0 0
          0 0 0 0 0 0 0 0 0 0 0 0
          0 0 0 0 0 0 0 0 0 0 0 0
          0 0 0 0 0 0 0 0 0 0 0 0
          0 0 0 0 0
        </DataArray>
        <DataArray type="Float32" Name="saturation_gas" NumberOfComponents="1" format="ascii">
          1 1 1 1 1 1 1 1 1 1 1 1
          1 1 1 1 1 1 1 1 1 1 1 1
          1 1 1 1 1 1 1 1 1 1 1 1
          1 1 1 1 1 1 0.999993 0.999995 0.997545 0.998236 0.607422 0.671124
          4.60752e-06 9.13071e-06 1 1 1 1 1 1 1 1 1 1
          1 1 1 1 1 1 1 1 1 1 1 0.999996
          0.998373 0.671667 7.65571e-06 1 1 1 1 1 1 1 1 1
          1 1 1 1 1 1 1 1 1 1 1 1
          0.999997 0.998708 0.687187 3.73025e-06 1 1 1 1 1 1 1 1
          1 1 1 1 1 1 1 1 1 1 1 1
          1 0.999999 0.999595 0.820487 6.99981e-05 1 1 1 1 1 1 1
          1 1 1 1 1 1 1 1 1 1 1 1
          1 1 1 1 0.999999 0.905391 1 1 1 1 1 1
          1 1 1 1 1 1 1 1 1 1 1 1
          1 1 1 1 1 1 1 1 1 1 1 1
          1 1 1 1 1 1 1 1 1 1 1 1
          1 1 1 1 1 1 1 1 1 1 1 1
          1 1 1 1 1 1 1 1 1 1 1 1
          1 1 1 1 1 1 1 1 1 1 1 1
          1 1 1 1 1 1 1 1 1 1 1 1
          1 1 1 1 1 1 1 1 1 1 1 1
          1 1 1 1 1 1 1 1 1 1 1 1
          1 1 1 1 1 1 1 1 1 1 1 1
          1 1 1 1 1 1 1 1 1 1 1 1
          1 1 1 1 1 1 1 1 1 1 1 1
          1 1 1 1 1 1 1 1 1 1 1 1
          1 1 1 1 1 1 1 1 1 1 1 1
          1 1 1 1 1 1 1 1 1 1 1 1
          1 1 1 1 1 1 1 1 1 1 1 1
          1 1 1 1 1 1 1 1 1 1 1 1
          1 1 1 1 1 1 1 1 1 1 1 1
          1 1 1 1 1 1 1 1 1 1 1 1
          1 1 1 1 1 1 1 1 1 1 1 1
          1 1 1 1 1 1 1 1 1 1 1 1
          1 1 1 1 1 1 1 1 1 1 1 1
          1 1 1 1 1
        </DataArray>
        <DataArray type="Float32" Name="relativePerm_liquid" NumberOfComponents="1" format="ascii">
          0 0 0 0 0 0 0 0 0 0 0 0
          0 0 0 0 0 0 4.2039e-45 1.4013e-45 6.07785e-41 2.33414e-41 4.94767e-37 1.98988e-37
          2.49978e-33 1.0539e-33 8.68537e-30 3.84226e-30 2.17968e-26 1.01288e-26 4.06239e-23 1.98515e-23 5.72387e-20 2.94467e-20 6.17771e-17 3.34953e-17
          5.16658e-14 2.95553e-14 3.38792e-11 2.04701e-11 1.76369e-08 1.12696e-08 7.36334e-06 4.98359e-06 0.00245472 0.00176391 0.392578 0.328876
          0.999995 0.999991 0 0 0 0 0 0 0 0 0 0
          1.08278e-41 9.63223e-38 5.33288e-34 2.03615e-30 5.63428e-27 1.1623e-23 1.82035e-20 2.19369e-17 2.05812e-14 1.52124e-11 8.97008e-09 4.26331e-06
          0.00162726 0.328333 0.999992 0 0 0 0 0 0 0 0 0
          0 2.63865e-42 2.50998e-38 1.48966e-34 6.11733e-31 1.82827e-27 4.09435e-24 7.00317e-21 9.28189e-18 9.65552e-15 7.98803e-12 5.33117e-09
          2.90676e-06 0.00129247 0.312813 0.999996 0 0 0 0 0 0 0 0
          0 0 9.66896e-44 1.00242e-39 6.55668e-36 2.98705e-32 9.99158e-29 2.53321e-25 4.97849e-22 7.72731e-19 9.64715e-16 9.8846e-13
          8.50513e-10 6.29117e-07 0.000404721 0.179513 0.99993 0 0 0 0 0 0 0
          0 0 0 0 0 2.42985e-42 1.28533e-38 5.0685e-35 1.54408e-31 3.73031e-28 7.3033e-25 1.18147e-21
          1.60746e-18 1.86802e-15 1.8762e-12 1.64282e-09 1.29777e-06 0.0946091 0 0 0 0 0 0
          0 0 0 0 0 0 0 0 0 0 0 0
          0 0 0 0 0 0 0 0 0 0 0 0
          0 0 0 0 0 0 0 0 0 0 0 0
          0 0 0 0 0 0 0 0 0 0 0 0
          0 0 0 0 0 0 0 0 0 0 0 0
          0 0 0 0 0 0 0 0 0 0 0 0
          0 0 0 0 0 0 0 0 0 0 0 0
          0 0 0 0 0 0 0 0 0 0 0 0
          0 0 0 0 0 0 0 0 0 0 0 0
          0 0 0 0 0 0 0 0 0 0 0 0
          0 0 0 0 0 0 0 0 0 0 0 0
          0 0 0 0 0 0 0 0 0 0 0 0
          0 0 0 0 0 0 0 0 0 0 0 0
          0 0 0 0 0 0 0 0 0 0 0 0
          0 0 0 0 0 0 0 0 0 0 0 0
          0 0 0 0 0 0 0 0 0 0 0 0
          0 0 0 0 0 0 0 0 0 0 0 0
          0 0 0 0 0 0 0 0 0 0 0 0
          0 0 0 0 0 0 0 0 0 0 0 0
          0 0 0 0 0 0 0 0 0 0 0 0
          0 0 0 0 0 0 0 0 0 0 0 0
          0 0 0 0 0 0 0 0 0 0 0 0
          0 0 0 0 0
        </DataArray>
        <DataArray type="Float32" Name="relativePerm_gas" NumberOfComponents="1" format="ascii">
          1 1 1 1 1 1 1 1 1 1 1 1
          1 1 1 1 1 1 1 1 1 1 1 1
          1 1 1 1 1 1 1 1 1 1 1 1
          1 1 1 1 1 1 0.999993 0.999995 0.997545 0.998236 0.607422 0.671124
          4.60752e-06 9.13071e-06 1 1 1 1 1 1 1 1 1 1
          1 1 1 1 1 1 1 1 1 1 1 0.999996
          0.998373 0.671667 7.65571e-06 1 1 1 1 1 1 1 1 1
          1 1 1 1 1 1 1 1 1 1 1 1
          0.999997 0.998708 0.687187 3.73025e-06 1 1 1 1 1 1 1 1
          1 1 1 1 1 1 1 1 1 1 1 1
          1 0.999999 0.999595 0.820487 6.99981e-05 1 1 1 1 1 1 1
          1 1 1 1 1 1 1 1 1 1 1 1
          1 1 1 1 0.999999 0.905391 1 1 1 1 1 1
          1 1 1 1 1 1 1 1 1 1 1 1
          1 1 1 1 1 1 1 1 1 1 1 1
          1 1 1 1 1 1 1 1 1 1 1 1
          1 1 1 1 1 1 1 1 1 1 1 1
          1 1 1 1 1 1 1 1 1 1 1 1
          1 1 1 1 1 1 1 1 1 1 1 1
          1 1 1 1 1 1 1 1 1 1 1 1
          1 1 1 1 1 1 1 1 1 1 1 1
          1 1 1 1 1 1 1 1 1 1 1 1
          1 1 1 1 1 1 1 1 1 1 1 1
          1 1 1 1 1 1 1 1 1 1 1 1
          1 1 1 1 1 1 1 1 1 1 1 1
          1 1 1 1 1 1 1 1 1 1 1 1
          1 1 1 1 1 1 1 1 1 1 1 1
          1 1 1 1 1 1 1 1 1 1 1 1
          1 1 1 1 1 1 1 1 1 1 1 1
          1 1 1 1 1 1 1 1 1 1 1 1
          1 1 1 1 1 1 1 1 1 1 1 1
          1 1 1 1 1 1 1 1 1 1 1 1
          1 1 1 1 1 1 1 1 1 1 1 1
          1 1 1 1 1 1 1 1 1 1 1 1
          1 1 1 1 1 1 1 1 1 1 1 1
          1 1 1 1 1
        </DataArray>
        <DataArray type="Float32" Name="porosity" NumberOfComponents="1" format="ascii">
          0.3 0.3 0.3 0.3 0.3 0.3 0.3 0.3 0.3 0.3 0.3 0.3
          0.3 0.3 0.3 0.3 0.3 0.3 0.3 0.3 0.3 0.3 0.3 0.3
          0.3 0.3 0.3 0.3 0.3 0.3 0.3 0.3 0.3 0.3 0.3 0.3
          0.3 0.3 0.3 0.3 0.3 0.3 0.3 0.3 0.3 0.3 0.3 0.3
          0.3 0.3 0.3 0.3 0.3 0.3 0.3 0.3 0.3 0.3 0.3 0.3
          0.3 0.3 0.3 0.3 0.3 0.3 0.3 0.3 0.3 0.3 0.3 0.3
          0.3 0.3 0.3 0.3 0.3 0.3 0.3 0.3 0.3 0.3 0.3 0.3
          0.3 0.3 0.3 0.3 0.3 0.3 0.3 0.3 0.3 0.3 0.3 0.3
          0.3 0.3 0.3 0.3 0.3 0.3 0.3 0.3 0.3 0.3 0.3 0.3
          0.3 0.3 0.3 0.3 0.3 0.3 0.3 0.3 0.3 0.3 0.3 0.3
          0.3 0.3 0.3 0.3 0.3 0.3 0.3 0.3 0.3 0.3 0.3 0.3
          0.3 0.3 0.3 0.3 0.3 0.3 0.3 0.3 0.3 0.3 0.3 0.3
          0.3 0.3 0.3 0.3 0.3 0.3 0.3 0.3 0.3 0.3 0.3 0.3
          0.3 0.3 0.3 0.3 0.3 0.3 0.3 0.3 0.3 0.3 0.3 0.3
          0.3 0.3 0.3 0.3 0.3 0.3 0.3 0.3 0.3 0.3 0.3 0.3
          0.3 0.3 0.3 0.3 0.3 0.3 0.3 0.3 0.3 0.3 0.3 0.3
          0.3 0.3 0.3 0.3 0.3 0.3 0.3 0.3 0.3 0.3 0.3 0.3
          0.3 0.3 0.3 0.3 0.3 0.3 0.3 0.3 0.3 0.3 0.3 0.3
          0.3 0.3 0.3 0.3 0.3 0.3 0.3 0.3 0.3 0.3 0.3 0.3
          0.3 0.3 0.3 0.3 0.3 0.3 0.3 0.3 0.3 0.3 0.3 0.3
          0.3 0.3 0.3 0.3 0.3 0.3 0.3 0.3 0.3 0.3 0.3 0.3
          0.3 0.3 0.3 0.3 0.3 0.3 0.3 0.3 0.3 0.3 0.3 0.3
          0.3 0.3 0.3 0.3 0.3 0.3 0.3 0.3 0.3 0.3 0.3 0.3
          0.3 0.3 0.3 0.3 0.3 0.3 0.3 0.3 0.3 0.3 0.3 0.3
          0.3 0.3 0.3 0.3 0.3 0.3 0.3 0.3 0.3 0.3 0.3 0.3
          0.3 0.3 0.3 0.3 0.3 0.3 0.3 0.3 0.3 0.3 0.3 0.3
          0.3 0.3 0.3 0.3 0.3 0.3 0.3 0.3 0.3 0.3 0.3 0.3
          0.3 0.3 0.3 0.3 0.3 0.3 0.3 0.3 0.3 0.3 0.3 0.3
          0.3 0.3 0.3 0.3 0.3 0.3 0.3 0.3 0.3 0.3 0.3 0.3
          0.3 0.3 0.3 0.3 0.3 0.3 0.3 0.3 0.3 0.3 0.3 0.3
          0.3 0.3 0.3 0.3 0.3 0.3 0.3 0.3 0.3 0.3 0.3 0.3
          0.3 0.3 0.3 0.3 0.3 0.3 0.3 0.3 0.3 0.3 0.3 0.3
          0.3 0.3 0.3 0.3 0.3 0.3 0.3 0.3 0.3 0.3 0.3 0.3
          0.3 0.3 0.3 0.3 0.3 0.3 0.3 0.3 0.3 0.3 0.3 0.3
          0.3 0.3 0.3 0.3 0.3 0.3 0.3 0.3 0.3 0.3 0.3 0.3
          0.3 0.3 0.3 0.3 0.3
        </DataArray>
        <DataArray type="Float32" Name="temperature" NumberOfComponents="1" format="ascii">
          298.15 298.15 298.15 298.15 298.15 298.15 298.15 298.15 298.15 298.15 298.15 298.15
          298.15 298.15 298.15 298.15 298.15 298.15 298.15 298.15 298.15 298.15 298.15 298.15
          298.15 298.15 298.15 298.15 298.15 298.15 298.15 298.15 298.15 298.15 298.15 298.15
          298.15 298.15 298.15 298.15 298.15 298.15 298.15 298.15 298.15 298.15 298.15 298.15
          298.15 298.15 298.15 298.15 298.15 298.15 298.15 298.15 298.15 298.15 298.15 298.15
          298.15 298.15 298.15 298.15 298.15 298.15 298.15 298.15 298.15 298.15 298.15 298.15
          298.15 298.15 298.15 298.15 298.15 298.15 298.15 298.15 298.15 298.15 298.15 298.15
          298.15 298.15 298.15 298.15 298.15 298.15 298.15 298.15 298.15 298.15 298.15 298.15
          298.15 298.15 298.15 298.15 298.15 298.15 298.15 298.15 298.15 298.15 298.15 298.15
          298.15 298.15 298.15 298.15 298.15 298.15 298.15 298.15 298.15 298.15 298.15 298.15
          298.15 298.15 298.15 298.15 298.15 298.15 298.15 298.15 298.15 298.15 298.15 298.15
          298.15 298.15 298.15 298.15 298.15 298.15 298.15 298.15 298.15 298.15 298.15 298.15
          298.15 298.15 298.15 298.15 298.15 298.15 298.15 298.15 298.15 298.15 298.15 298.15
          298.15 298.15 298.15 298.15 298.15 298.15 298.15 298.15 298.15 298.15 298.15 298.15
          298.15 298.15 298.15 298.15 298.15 298.15 298.15 298.15 298.15 298.15 298.15 298.15
          298.15 298.15 298.15 298.15 298.15 298.15 298.15 298.15 298.15 298.15 298.15 298.15
          298.15 298.15 298.15 298.15 298.15 298.15 298.15 298.15 298.15 298.15 298.15 298.15
          298.15 298.15 298.15 298.15 298.15 298.15 298.15 298.15 298.15 298.15 298.15 298.15
          298.15 298.15 298.15 298.15 298.15 298.15 298.15 298.15 298.15 298.15 298.15 298.15
          298.15 298.15 298.15 298.15 298.15 298.15 298.15 298.15 298.15 298.15 298.15 298.15
          298.15 298.15 298.15 298.15 298.15 298.15 298.15 298.15 298.15 298.15 298.15 298.15
          298.15 298.15 298.15 298.15 298.15 298.15 298.15 298.15 298.15 298.15 298.15 298.15
          298.15 298.15 298.15 298.15 298.15 298.15 298.15 298.15 298.15 298.15 298.15 298.15
          298.15 298.15 298.15 298.15 298.15 298.15 298.15 298.15 298.15 298.15 298.15 298.15
          298.15 298.15 298.15 298.15 298.15 298.15 298.15 298.15 298.15 298.15 298.15 298.15
          298.15 298.15 298.15 298.15 298.15 298.15 298.15 298.15 298.15 298.15 298.15 298.15
          298.15 298.15 298.15 298.15 298.15 298.15 298.15 298.15 298.15 298.15 298.15 298.15
          298.15 298.15 298.15 298.15 298.15 298.15 298.15 298.15 298.15 298.15 298.15 298.15
          298.15 298.15 298.15 298.15 298.15 298.15 298.15 298.15 298.15 298.15 298.15 298.15
          298.15 298.15 298.15 298.15 298.15 298.15 298.15 298.15 298.15 298.15 298.15 298.15
          298.15 298.15 298.15 298.15 298.15 298.15 298.15 298.15 298.15 298.15 298.15 298.15
          298.15 298.15 298.15 298.15 298.15 298.15 298.15 298.15 298.15 298.15 298.15 298.15
          298.15 298.15 298.15 298.15 298.15 298.15 298.15 298.15 298.15 298.15 298.15 298.15
          298.15 298.15 298.15 298.15 298.15 298.15 298.15 298.15 298.15 298.15 298.15 298.15
          298.15 298.15 298.15 298.15 298.15 298.15 298.15 298.15 298.15 298.15 298.15 298.15
          298.15 298.15 298.15 298.15 298.15
        </DataArray>
      </PointData>
      <Points>
        <DataArray type="Float32" Name="Coordinates" NumberOfComponents="3" format="ascii">
          0 0 0 2.5 0 0 0 2.5 0 2.5 2.5 0
          5 0 0 5 2.5 0 7.5 0 0 7.5 2.5 0
          10 0 0 10 2.5 0 12.5 0 0 12.5 2.5 0
          15 0 0 15 2.5 0 17.5 0 0 17.5 2.5 0
          20 0 0 20 2.5 0 22.5 0 0 22.5 2.5 0
          25 0 0 25 2.5 0 27.5 0 0 27.5 2.5 0
          30 0 0 30 2.5 0 32.5 0 0 32.5 2.5 0
          35 0 0 35 2.5 0 37.5 0 0 37.5 2.5 0
          40 0 0 40 2.5 0 42.5 0 0 42.5 2.5 0
          45 0 0 45 2.5 0 47.5 0 0 47.5 2.5 0
          50 0 0 50 2.5 0 52.5 0 0 52.5 2.5 0
          55 0 0 55 2.5 0 57.5 0 0 57.5 2.5 0
          60 0 0 60 2.5 0 0 5 0 2.5 5 0
          5 5 0 7.5 5 0 10 5 0 12.5 5 0
          15 5 0 17.5 5 0 20 5 0 22.5 5 0
          25 5 0 27.5 5 0 30 5 0 32.5 5 0
          35 5 0 37.5 5 0 40 5 0 42.5 5 0
          45 5 0 47.5 5 0 50 5 0 52.5 5 0
          55 5 0 57.5 5 0 60 5 0 0 7.5 0
          2.5 7.5 0 5 7.5 0 7.5 7.5 0 10 7.5 0
          12.5 7.5 0 15 7.5 0 17.5 7.5 0 20 7.5 0
          22.5 7.5 0 25 7.5 0 27.5 7.5 0 30 7.5 0
          32.5 7.5 0 35 7.5 0 37.5 7.5 0 40 7.5 0
          42.5 7.5 0 45 7.5 0 47.5 7.5 0 50 7.5 0
          52.5 7.5 0 55 7.5 0 57.5 7.5 0 60 7.5 0
          0 10 0 2.5 10 0 5 10 0 7.5 10 0
          10 10 0 12.5 10 0 15 10 0 17.5 10 0
          20 10 0 22.5 10 0 25 10 0 27.5 10 0
          30 10 0 32.5 10 0 35 10 0 37.5 10 0
          40 10 0 42.5 10 0 45 10 0 47.5 10 0
          50 10 0 52.5 10 0 55 10 0 57.5 10 0
          60 10 0 0 12.5 0 2.5 12.5 0 5 12.5 0
          7.5 12.5 0 10 12.5 0 12.5 12.5 0 15 12.5 0
          17.5 12.5 0 20 12.5 0 22.5 12.5 0 25 12.5 0
          27.5 12.5 0 30 12.5 0 32.5 12.5 0 35 12.5 0
          37.5 12.5 0 40 12.5 0 42.5 12.5 0 45 12.5 0
          47.5 12.5 0 50 12.5 0 52.5 12.5 0 55 12.5 0
          57.5 12.5 0 60 12.5 0 0 15 0 2.5 15 0
          5 15 0 7.5 15 0 10 15 0 12.5 15 0
          15 15 0 17.5 15 0 20 15 0 22.5 15 0
          25 15 0 27.5 15 0 30 15 0 32.5 15 0
          35 15 0 37.5 15 0 40 15 0 42.5 15 0