<?xml version="1.0"?>
<VTKFile type="UnstructuredGrid" version="0.1" byte_order="LittleEndian">
  <UnstructuredGrid>
    <Piece NumberOfCells="384" NumberOfPoints="425">
      <PointData Scalars="pressure_l">
        <DataArray type="Float32" Name="pressure_l" NumberOfComponents="1" format="ascii">
          100010 100048 100005 100028 100066 100043 100076 100050 100005 100003 100002 100000
          100002 100000 100002 100000 100026 100023 100892 100858 100939 100906 101038 101005
          101191 101156 101401 101364 101672 101633 102009 101967 102417 102370 102899 102846
          103460 103400 104105 104034 104847 104757 105713 105588 106742 106590 108808 108675
          188382 184675 100003 100017 100026 100031 100002 100000 100000 100000 100021 100817
          100865 100961 101108 101310 101571 101895 102286 102748 103281 103887 104562 105298
          106103 107739 184351 100002 100010 100016 100019 100001 100000 100000 100000 100020
          100769 100815 100907 101048 101241 101490 101798 102170 102607 103111 103680 104304
          104943 105460 105902 183513 100001 100004 100007 100009 100001 100000 100000 100000
          100018 100715 100758 100845 100977 101158 101391 101679 102025 102432 102900 103429
          104013 104638 105200 104015 168713 99998.7 99999.4 100001 100002 100000 100000 100000
          100000 100016 100657 100696 100776 100898 101065 101278 101542 101858 102228 102654
          103137 103682 104318 105219 108511 100321 99993.5 99993.8 99994.3 99994.7 100000 100000
          100000 100000 100014 100594 100631 100703 100814 100964 101156 101392 101675 102004
          102381 102807 103286 103840 104532 104619 104268 99987.2 99987.3 99987.5 99987.7 99999.7
          100000 100000 100000 100012 100530 100563 100628 100726 100859 101029 101236 101483
          101769 102093 102451 102841 103247 103585 103734 103748 99979.8 99979.8 99980 99980.1
          99999.5 100000 100000 100000 100011 100466 100494 100551 100637 100753 100901 101080
          101291 101533 101803 102094 102396 102683 102912 103046 103088 99971.3 99971.4 99971.5
          99971.6 99999.2 100000 100000 100000 100009 100402 100427 100476 100551 100650 100776
          100928 101106 101307 101526 101758 101989 102200 102367 102473 102508 99961.6 99961.7
          99961.8 99962 99998.8 100000 100000 100000 100007 100340 100362 100404 100468 100553
          100659 100787 100934 101098 101274 101457 101634 101792 101918 101998 102025 99950.5
          99950.6 99950.7 99951 99998.4 100000 100000 100000 100006 100281 100300 100336 100391
          100463 100552 100658 100779 100912 101054 101197 101334 101454 101549 101610 101631
          99937.7 99937.9 99938.1 99938.4 99997.9 100000 100000 100000 100004 100225 100241 100273
          100320 100382 100457 100546 100646 100754 100868 100981 101088 101181 101254 101300
          101316 99923.1 99923.4 99924 99924.3 99997.3 99999.9 100000 100000 100002 100171 100187
          100216 100258 100312 100376 100451 100535 100625 100717 100809 100894 100968 101026
          101062 101074 99905.9 99906.7 99909 99908.6 99995.1 99998.1 99998.7 99999.1 100000 100118
          100135 100165 100205 100253 100310 100375 100447 100524 100603 100679 100750 100811
          100858 100888 100898 99885.3 99886.8 99891.8 99905.5 99918.4 99940.8 99963.9 99990.2 100024
          100054 100090 100123 100161 100206 100259 100319 100384 100453 100523 100591 100654
          100707 100749 100774 100783 99860.2 99862 99868.2 99879.2 99894.2 99913.6 99936.4 99962.6
          99991.9 100023 100055 100090 100128 100172 100223 100281 100344 100411 100478 100543
          100603 100655 100694 100718 100727
        </DataArray>
        <DataArray type="Float32" Name="pressure_g" NumberOfComponents="1" format="ascii">
          100010 100048 100005 100028 100066 100043 100076 100050 100005 100003 100002 100000
          100002 100000 100002 100000 100026 100023 100892 100858 100939 100906 101038 101005
          101191 101156 101401 101364 101672 101633 102009 101967 102417 102370 102899 102846
          103460 103400 104105 104034 104847 104757 105713 105588 106742 106590 108808 108675
          188382 184675 100003 100017 100026 100031 100002 100000 100000 100000 100021 100817
          100865 100961 101108 101310 101571 101895 102286 102748 103281 103887 104562 105298
          106103 107739 184351 100002 100010 100016 100019 100001 100000 100000 100000 100020
          100769 100815 100907 101048 101241 101490 101798 102170 102607 103111 103680 104304
          104943 105460 105902 183513 100001 100004 100007 100009 100001 100000 100000 100000
          100018 100715 100758 100845 100977 101158 101391 101679 102025 102432 102900 103429
          104013 104638 105200 104015 168713 99998.7 99999.4 100001 100002 100000 100000 100000
          100000 100016 100657 100696 100776 100898 101065 101278 101542 101858 102228 102654
          103137 103682 104318 105219 108511 100321 99993.5 99993.8 99994.3 99994.7 100000 100000
          100000 100000 100014 100594 100631 100703 100814 100964 101156 101392 101675 102004
          102381 102807 103286 103840 104532 104619 104268 99987.2 99987.3 99987.5 99987.7 99999.7
          100000 100000 100000 100012 100530 100563 100628 100726 100859 101029 101236 101483
          101769 102093 102451 102841 103247 103585 103734 103748 99979.8 99979.8 99980 99980.1
          99999.5 100000 100000 100000 100011 100466 100494 100551 100637 100753 100901 101080
          101291 101533 101803 102094 102396 102683 102912 103046 103088 99971.3 99971.4 99971.5
          99971.6 99999.2 100000 100000 100000 100009 100402 100427 100476 100551 100650 100776
          100928 101106 101307 101526 101758 101989 102200 102367 102473 102508 99961.6 99961.7
          99961.8 99962 99998.8 100000 100000 100000 100007 100340 100362 100404 100468 100553
          100659 100787 100934 101098 101274 101457 101634 101792 101918 101998 102025 99950.5
          99950.6 99950.7 99951 99998.4 100000 100000 100000 100006 100281 100300 100336 100391
          100463 100552 100658 100779 100912 101054 101197 101334 101454 101549 101610 101631
          99937.7 99937.9 99938.1 99938.4 99997.9 100000 100000 100000 100004 100225 100241 100273
          100320 100382 100457 100546 100646 100754 100868 100981 101088 101181 101254 101300
          101316 99923.1 99923.4 99924 99924.3 99997.3 99999.9 100000 100000 100002 100171 100187
          100216 100258 100312 100376 100451 100535 100625 100717 100809 100894 100968 101026
          101062 101074 99905.9 99906.7 99909 99908.6 99995.1 99998.1 99998.7 99999.1 100000 100118
          100135 100165 100205 100253 100310 100375 100447 100524 100603 100679 100750 100811
          100858 100888 100898 99885.3 99886.8 99891.8 99905.5 99918.4 99940.8 99963.9 99990.2 100024
          100054 100090 100123 100161 100206 100259 100319 100384 100453 100523 100591 100654
          100707 100749 100774 100783 99860.2 99862 99868.2 99879.2 99894.2 99913.6 99936.4 99962.6
          99991.9 100023 100055 100090 100128 100172 100223 100281 100344 100411 100478 100543
          100603 100655 100694 100718 100727
        </DataArray>
        <DataArray type="Float32" Name="density_l" NumberOfComponents="1" format="ascii">
          997.068 997.068 997.068 997.068 997.068 997.068 997.068 997.068 997.068 997.068 997.068 997.068
          997.068 997.068 997.068 997.068 997.068 997.068 997.068 997.068 997.068 997.068 997.068 997.068
          997.068 997.068 997.068 997.068 997.069 997.069 997.069 997.069 997.069 997.069 997.069 997.069
          997.069 997.069 997.069 997.069 997.068 997.068 997.063 997.063 997.057 997.057 997.058 997.058
          997.099 997.097 997.068 997.068 997.068 997.068 997.068 997.068 997.068 997.068 997.068 997.068
          997.068 997.068 997.068 997.068 997.068 997.069 997.069 997.069 997.069 997.069 997.068 997.063
          997.057 997.058 997.097 997.068 997.068 997.068 997.068 997.068 997.068 997.068 997.068 997.068
          997.068 997.068 997.068 997.068 997.068 997.068 997.069 997.069 997.069 997.069 997.069 997.069
          997.064 997.057 997.057 997.097 997.068 997.068 997.068 997.068 997.068 997.068 997.068 997.068
          997.068 997.068 997.068 997.068 997.068 997.068 997.068 997.069 997.069 997.069 997.069 997.069
          997.069 997.065 997.057 997.056 997.089 997.068 997.068 997.068 997.068 997.068 997.068 997.068
          997.068 997.068 997.068 997.068 997.068 997.068 997.068 997.068 997.068 997.069 997.069 997.069
          997.069 997.069 997.068 997.061 997.058 997.054 997.068 997.068 997.068 997.068 997.068 997.068
          997.068 997.068 997.068 997.068 997.068 997.068 997.068 997.068 997.068 997.068 997.069 997.069
          997.069 997.069 997.069 997.069 997.067 997.061 997.066 997.068 997.068 997.068 997.068 997.068
          997.068 997.068 997.068 997.068 997.068 997.068 997.068 997.068 997.068 997.068 997.068 997.068
          997.069 997.069 997.069 997.069 997.069 997.069 997.068 997.069 997.068 997.068 997.068 997.068
          997.068 997.068 997.068 997.068 997.068 997.068 997.068 997.068 997.068 997.068 997.068 997.068
          997.068 997.068 997.069 997.069 997.069 997.069 997.069 997.069 997.069 997.068 997.068 997.068
          997.068 997.068 997.068 997.068 997.068 997.068 997.068 997.068 997.068 997.068 997.068 997.068
          997.068 997.068 997.068 997.068 997.069 997.069 997.069 997.069 997.069 997.069 997.068 997.068
          997.068 997.068 997.068 997.068 997.068 997.068 997.068 997.068 997.068 997.068 997.068 997.068
          997.068 997.068 997.068 997.068 997.068 997.068 997.069 997.069 997.069 997.069 997.069 997.068
          997.068 997.068 997.068 997.068 997.068 997.068 997.068 997.068 997.068 997.068 997.068 997.068
          997.068 997.068 997.068 997.068 997.068 997.068 997.068 997.068 997.068 997.068 997.069 997.069
          997.068 997.068 997.068 997.068 997.068 997.068 997.068 997.068 997.068 997.068 997.068 997.068
          997.068 997.068 997.068 997.068 997.068 997.068 997.068 997.068 997.068 997.068 997.068 997.068
          997.068 997.068 997.068 997.068 997.068 997.068 997.068 997.068 997.068 997.068 997.068 997.068
          997.068 997.068 997.068 997.068 997.068 997.068 997.068 997.068 997.068 997.068 997.068 997.068
          997.068 997.068 997.068 997.068 997.068 997.068 997.068 997.068 997.068 997.068 997.068 997.068
          997.068 997.068 997.068 997.068 997.068 997.068 997.068 997.068 997.068 997.068 997.068 997.068
          997.068 997.068 997.068 997.068 997.068 997.068 997.068 997.068 997.068 997.068 997.068 997.068
          997.068 997.068 997.068 997.068 997.068 997.068 997.068 997.068 997.068 997.068 997.068 997.068
          997.068 997.068 997.068 997.068 997.068 997.068 997.068 997.068 997.068 997.068 997.068 997.068
          997.068 997.068 997.068 997.068 997.068 997.068 997.068 997.068 997.068 997.068 997.068 997.068
          997.068 997.068 997.068 997.068 997.068
        </DataArray>
        <DataArray type="Float32" Name="density_g" NumberOfComponents="1" format="ascii">
          1.12612 1.12655 1.12606 1.12631 1.12675 1.12648 1.12686 1.12656 1.12606 1.12603 1.12602 1.126
          1.12602 1.126 1.12602 1.12601 1.12629 1.12626 1.13605 1.13566 1.13658 1.13621 1.13769 1.13732
          1.13942 1.13902 1.14178 1.14136 1.14483 1.14439 1.14863 1.14815 1.15322 1.15269 1.15865 1.15805
          1.16496 1.16428 1.17217 1.17138 1.18012 1.17913 1.18768 1.18636 1.19349 1.19177 1.21683 1.21534
          2.11606 2.07416 1.12604 1.12619 1.1263 1.12636 1.12602 1.126 1.126 1.12601 1.12624 1.1352
          1.13574 1.13682 1.13848 1.14076 1.1437 1.14735 1.15175 1.15694 1.16295 1.16973 1.17702 1.1834
          1.18627 1.20476 2.0705 1.12602 1.12611 1.12618 1.12621 1.12601 1.126 1.126 1.12601 1.12622
          1.13466 1.13518 1.13622 1.1378 1.13998 1.14278 1.14625 1.15044 1.15536 1.16104 1.16742 1.1742
          1.17986 1.17901 1.184 2.06104 1.12602 1.12605 1.12609 1.12611 1.12601 1.126 1.126 1.126
          1.1262 1.13406 1.13454 1.13552 1.13701 1.13904 1.14166 1.14491 1.14881 1.15339 1.15866 1.1646
          1.17102 1.17672 1.17606 1.16267 1.89379 1.12599 1.126 1.12601 1.12602 1.12601 1.126 1.126
          1.126 1.12618 1.1334 1.13385 1.13475 1.13612 1.13799 1.14039 1.14336 1.14692 1.15109 1.15589
          1.16132 1.16742 1.17416 1.18151 1.21348 1.12092 1.12593 1.12593 1.12594 1.12594 1.126 1.126
          1.126 1.126 1.12616 1.1327 1.13311 1.13392 1.13516 1.13685 1.13902 1.14168 1.14486 1.14857
          1.15282 1.15761 1.16299 1.16916 1.17637 1.17477 1.17305 1.12586 1.12586 1.12586 1.12586 1.126
          1.126 1.126 1.126 1.12614 1.13197 1.13234 1.13307 1.13417 1.13567 1.13758 1.13992 1.1427
          1.14592 1.14957 1.15361 1.15799 1.16256 1.1663 1.16766 1.1681 1.12577 1.12578 1.12578 1.12578
          1.126 1.126 1.126 1.126 1.12612 1.13125 1.13157 1.13221 1.13318 1.13449 1.13614 1.13816
          1.14054 1.14327 1.1463 1.14959 1.15298 1.15621 1.15878 1.16028 1.16076 1.12568 1.12568 1.12568
          1.12568 1.12599 1.126 1.126 1.126 1.1261 1.13053 1.13081 1.13137 1.1322 1.13333 1.13474
          1.13646 1.13845 1.14072 1.14319 1.1458 1.1484 1.15077 1.15266 1.15385 1.15425 1.12557 1.12557
          1.12557 1.12557 1.12599 1.126 1.126 1.126 1.12608 1.12983 1.13008 1.13055 1.13127 1.13223
          1.13343 1.13486 1.13652 1.13836 1.14035 1.1424 1.1444 1.14618 1.1476 1.1485 1.14881 1.12545
          1.12545 1.12545 1.12545 1.12598 1.126 1.126 1.126 1.12607 1.12917 1.12938 1.12979 1.1304
          1.13121 1.13222 1.13341 1.13478 1.13628 1.13787 1.13948 1.14102 1.14238 1.14345 1.14413 1.14436
          1.1253 1.1253 1.12531 1.12531 1.12598 1.126 1.126 1.126 1.12605 1.12853 1.12872 1.12908
          1.12961 1.1303 1.13115 1.13215 1.13327 1.1345 1.13577 1.13705 1.13825 1.13931 1.14012 1.14065
          1.14082 1.12514 1.12514 1.12515 1.12515 1.12597 1.126 1.126 1.126 1.12603 1.12793 1.1281
          1.12844 1.12891 1.12951 1.13024 1.13108 1.13202 1.13304 1.13408 1.13511 1.13607 1.13691 1.13755
          1.13796 1.1381 1.12494 1.12495 1.12498 1.12497 1.12595 1.12598 1.12599 1.12599 1.12601 1.12733
          1.12753 1.12787 1.12831 1.12885 1.12949 1.13023 1.13104 1.1319 1.13279 1.13365 1.13445 1.13514
          1.13567 1.136 1.13612 1.12471 1.12473 1.12478 1.12494 1.12508 1.12534 1.1256 1.12589 1.12627
          1.12661 1.12701 1.12738 1.12781 1.12832 1.12892 1.12959 1.13032 1.1311 1.13189 1.13266 1.13337
          1.13397 1.13443 1.13472 1.13482 1.12443 1.12445 1.12452 1.12464 1.12481 1.12503 1.12529 1.12558
          1.12591 1.12626 1.12663 1.12701 1.12744 1.12794 1.12852 1.12917 1.12988 1.13063 1.13139 1.13212
          1.1328 1.13337 1.13381 1.13409 1.13419
        </DataArray>
        <DataArray type="Float32" Name="saturation_l" NumberOfComponents="1" format="ascii">
          0 0 0 0 0 0 0 0 0 0 0 0
          0 0 0 0 0 0 0 0 0 0 0 0
          0 0 0 0 0 0 0 0 0 0 0 0
          0 0 0 0 0 0 0 0 0.00207798 0.00183233 0.423881 0.364871
          0.99823 0.99876 0 0 0 0 0 0 0 0 0 0
          0 0 0 0 0 0 0 0 0 0 0 0
          0.00138998 0.364631 0.999024 0 0 0 0 0 0 0 0 0
          0 0 0 0 0 0 0 0 0 0 0 0
          0 0.000302536 0.346117 0.999975 0 0 0 0 0 0 0 0
          0 0 0 0 0 0 0 0 0 0 0 0
          0 0 1.49755e-05 0.215222 0.996506 0 0 0 0 0 0 0
          0 0 0 0 0 0 0 0 0 0 0 0
          0 0 0 0 0.000583438 0.0868382 0 0 0 0 0 0
          0 0 0 0 0 0 0 0 0 0 0 0
          0 0 0 0 0 0 0 0 0 0 0 0
          0 0 0 0 0 0 0 0 0 0 0 0
          0 0 0 0 0 0 0 0 0 0 0 0
          0 0 0 0 0 0 0 0 0 0 0 0
          0 0 0 0 0 0 0 0 0 0 0 0
          0 0 0 0 0 0 0 0 0 0 0 0
          0 0 0 0 0 0 0 0 0 0 0 0
          0 0 0 0 0 0 0 0 0 0 0 0
          0 0 0 0 0 0 0 0 0 0 0 0
          0 0 0 0 0 0 0 0 0 0 0 0
          0 0 0 0 0 0 0 0 0 0 0 0
          0 0 0 0 0 0 0 0 0 0 0 0
          0 0 0 0 0 0 0 0 0 0 0 0
          0 0 0 0 0 0 0 0 0 0 0 0
          0 0 0 0 0 0 0 0 0 0 0 0
          0 0 0 0 0 0 0 0 0 0 0 0
          0 0 0 0 0 0 0 0 0 0 0 0
          0 0 0 0 0 0 0 0 0 0 0 0
          0 0 0 0 0 0 0 0 0 0 0 0
          0 0 0 0 0 0 0 0 0 0 0 0
          0 0 0 0 0 0 0 0 0 0 0 0
          0 0 0 0 0
        </DataArray>
        <DataArray type="Float32" Name="saturation_g" NumberOfComponents="1" format="ascii">
          1 1 1 1 1 1 1 1 1 1 1 1
          1 1 1 1 1 1 1 1 1 1 1 1
          1 1 1 1 1 1 1 1 1 1 1 1
          1 1 1 1 1 1 1 1 0.997922 0.998168 0.576119 0.635129
          0.0017697 0.00124028 1 1 1 1 1 1 1 1 1 1
          1 1 1 1 1 1 1 1 1 1 1 1
          0.99861 0.635369 0.000976467 1 1 1 1 1 1 1 1 1
          1 1 1 1 1 1 1 1 1 1 1 1
          1 0.999697 0.653883 2.46713e-05 1 1 1 1 1 1 1 1
          1 1 1 1 1 1 1 1 1 1 1 1
          1 1 0.999985 0.784778 0.00349426 1 1 1 1 1 1 1
          1 1 1 1 1 1 1 1 1 1 1 1
          1 1 1 1 0.999417 0.913162 1 1 1 1 1 1
          1 1 1 1 1 1 1 1 1 1 1 1
          1 1 1 1 1 1 1 1 1 1 1 1
          1 1 1 1 1 1 1 1 1 1 1 1
          1 1 1 1 1 1 1 1 1 1 1 1
          1 1 1 1 1 1 1 1 1 1 1 1
          1 1 1 1 1 1 1 1 1 1 1 1
          1 1 1 1 1 1 1 1 1 1 1 1
          1 1 1 1 1 1 1 1 1 1 1 1
          1 1 1 1 1 1 1 1 1 1 1 1
          1 1 1 1 1 1 1 1 1 1 1 1
          1 1 1 1 1 1 1 1 1 1 1 1
          1 1 1 1 1 1 1 1 1 1 1 1
          1 1 1 1 1 1 1 1 1 1 1 1
          1 1 1 1 1 1 1 1 1 1 1 1
          1 1 1 1 1 1 1 1 1 1 1 1
          1 1 1 1 1 1 1 1 1 1 1 1
          1 1 1 1 1 1 1 1 1 1 1 1
          1 1 1 1 1 1 1 1 1 1 1 1
          1 1 1 1 1 1 1 1 1 1 1 1
          1 1 1 1 1 1 1 1 1 1 1 1
          1 1 1 1 1 1 1 1 1 1 1 1
          1 1 1 1 1 1 1 1 1 1 1 1
          1 1 1 1 1
        </DataArray>
        <DataArray type="Float32" Name="relativePerm_l" NumberOfComponents="1" format="ascii">
          0 0 0 0 0 0 0 0 0 0 0 0
          0 0 0 0 0 0 0 0 0 0 0 0
          0 0 0 0 0 0 0 0 0 0 0 0
          0 0 0 0 0 0 0 0 3.85817e-05 2.99806e-05 0.419652 0.357364
          0.999972 0.999986 0 0 0 0 0 0 0 0 0 0
          0 0 0 0 0 0 0 0 0 0 0 0
          1.72335e-05 0.35711 0.999991 0 0 0 0 0 0 0 0 0
          0 0 0 0 0 0 0 0 0 0 0 0
          0 8.14199e-07 0.337568 1 0 0 0 0 0 0 0 0
          0 0 0 0 0 0 0 0 0 0 0 0
          0 0 1.99356e-09 0.199402 0.999891 0 0 0 0 0 0 0
          0 0 0 0 0 0 0 0 0 0 0 0
          0 0 0 0 3.03019e-06 0.0638848 0 0 0 0 0 0
          0 0 0 0 0 0 0 0 0 0 0 0
          0 0 0 0 0 0 0 0 0 0 0 0
          0 0 0 0 0 0 0 0 0 0 0 0
          0 0 0 0 0 0 0 0 0 0 0 0
          0 0 0 0 0 0 0 0 0 0 0 0
          0 0 0 0 0 0 0 0 0 0 0 0
          0 0 0 0 0 0 0 0 0 0 0 0
          0 0 0 0 0 0 0 0 0 0 0 0
          0 0 0 0 0 0 0 0 0 0 0 0
          0 0 0 0 0 0 0 0 0 0 0 0
          0 0 0 0 0 0 0 0 0 0 0 0
          0 0 0 0 0 0 0 0 0 0 0 0
          0 0 0 0 0 0 0 0 0 0 0 0
          0 0 0 0 0 0 0 0 0 0 0 0
          0 0 0 0 0 0 0 0 0 0 0 0
          0 0 0 0 0 0 0 0 0 0 0 0
          0 0 0 0 0 0 0 0 0 0 0 0
          0 0 0 0 0 0 0 0 0 0 0 0
          0 0 0 0 0 0 0 0 0 0 0 0
          0 0 0 0 0 0 0 0 0 0 0 0
          0 0 0 0 0 0 0 0 0 0 0 0
          0 0 0 0 0 0 0 0 0 0 0 0
          0 0 0 0 0
        </DataArray>
        <DataArray type="Float32" Name="relativePerm_g" NumberOfComponents="1" format="ascii">
          1 1 1 1 1 1 1 1 1 1 1 1
          1 1 1 1 1 1 1 1 1 1 1 1
          1 1 1 1 1 1 1 1 1 1 1 1
          1 1 1 1 1 1 1 1 0.999961 0.99997 0.580348 0.642636
          2.79616e-05 1.37162e-05 1 1 1 1 1 1 1 1 1 1
          1 1 1 1 1 1 1 1 1 1 1 1
          0.999983 0.64289 8.49614e-06 1 1 1 1 1 1 1 1 1
          1 1 1 1 1 1 1 1 1 1 1 1
          1 0.999999 0.662432 5.41076e-09 1 1 1 1 1 1 1 1
          1 1 1 1 1 1 1 1 1 1 1 1
          1 1 1 0.800599 0.00010948 1 1 1 1 1 1 1
          1 1 1 1 1 1 1 1 1 1 1 1
          1 1 1 1 0.999997 0.936115 1 1 1 1 1 1
          1 1 1 1 1 1 1 1 1 1 1 1
          1 1 1 1 1 1 1 1 1 1 1 1
          1 1 1 1 1 1 1 1 1 1 1 1
          1 1 1 1 1 1 1 1 1 1 1 1
          1 1 1 1 1 1 1 1 1 1 1 1
          1 1 1 1 1 1 1 1 1 1 1 1
          1 1 1 1 1 1 1 1 1 1 1 1
          1 1 1 1 1 1 1 1 1 1 1 1
          1 1 1 1 1 1 1 1 1 1 1 1
          1 1 1 1 1 1 1 1 1 1 1 1
          1 1 1 1 1 1 1 1 1 1 1 1
          1 1 1 1 1 1 1 1 1 1 1 1
          1 1 1 1 1 1 1 1 1 1 1 1
          1 1 1 1 1 1 1 1 1 1 1 1
          1 1 1 1 1 1 1 1 1 1 1 1
          1 1 1 1 1 1 1 1 1 1 1 1
          1 1 1 1 1 1 1 1 1 1 1 1
          1 1 1 1 1 1 1 1 1 1 1 1
          1 1 1 1 1 1 1 1 1 1 1 1
          1 1 1 1 1 1 1 1 1 1 1 1
          1 1 1 1 1 1 1 1 1 1 1 1
          1 1 1 1 1 1 1 1 1 1 1 1
          1 1 1 1 1
        </DataArray>
        <DataArray type="Float32" Name="porosity" NumberOfComponents="1" format="ascii">
          0.3 0.3 0.3 0.3 0.3 0.3 0.3 0.3 0.3 0.3 0.3 0.3
          0.3 0.3 0.3 0.3 0.3 0.3 0.3 0.3 0.3 0.3 0.3 0.3
          0.3 0.3 0.3 0.3 0.3 0.3 0.3 0.3 0.3 0.3 0.3 0.3
          0.3 0.3 0.3 0.3 0.3 0.3 0.3 0.3 0.3 0.3 0.3 0.3
          0.3 0.3 0.3 0.3 0.3 0.3 0.3 0.3 0.3 0.3 0.3 0.3
          0.3 0.3 0.3 0.3 0.3 0.3 0.3 0.3 0.3 0.3 0.3 0.3
          0.3 0.3 0.3 0.3 0.3 0.3 0.3 0.3 0.3 0.3 0.3 0.3
          0.3 0.3 0.3 0.3 0.3 0.3 0.3 0.3 0.3 0.3 0.3 0.3
          0.3 0.3 0.3 0.3 0.3 0.3 0.3 0.3 0.3 0.3 0.3 0.3
          0.3 0.3 0.3 0.3 0.3 0.3 0.3 0.3 0.3 0.3 0.3 0.3
          0.3 0.3 0.3 0.3 0.3 0.3 0.3 0.3 0.3 0.3 0.3 0.3
          0.3 0.3 0.3 0.3 0.3 0.3 0.3 0.3 0.3 0.3 0.3 0.3
          0.3 0.3 0.3 0.3 0.3 0.3 0.3 0.3 0.3 0.3 0.3 0.3
          0.3 0.3 0.3 0.3 0.3 0.3 0.3 0.3 0.3 0.3 0.3 0.3
          0.3 0.3 0.3 0.3 0.3 0.3 0.3 0.3 0.3 0.3 0.3 0.3
          0.3 0.3 0.3 0.3 0.3 0.3 0.3 0.3 0.3 0.3 0.3 0.3
          0.3 0.3 0.3 0.3 0.3 0.3 0.3 0.3 0.3 0.3 0.3 0.3
          0.3 0.3 0.3 0.3 0.3 0.3 0.3 0.3 0.3 0.3 0.3 0.3
          0.3 0.3 0.3 0.3 0.3 0.3 0.3 0.3 0.3 0.3 0.3 0.3
          0.3 0.3 0.3 0.3 0.3 0.3 0.3 0.3 0.3 0.3 0.3 0.3
          0.3 0.3 0.3 0.3 0.3 0.3 0.3 0.3 0.3 0.3 0.3 0.3
          0.3 0.3 0.3 0.3 0.3 0.3 0.3 0.3 0.3 0.3 0.3 0.3
          0.3 0.3 0.3 0.3 0.3 0.3 0.3 0.3 0.3 0.3 0.3 0.3
          0.3 0.3 0.3 0.3 0.3 0.3 0.3 0.3 0.3 0.3 0.3 0.3
          0.3 0.3 0.3 0.3 0.3 0.3 0.3 0.3 0.3 0.3 0.3 0.3
          0.3 0.3 0.3 0.3 0.3 0.3 0.3 0.3 0.3 0.3 0.3 0.3
          0.3 0.3 0.3 0.3 0.3 0.3 0.3 0.3 0.3 0.3 0.3 0.3
          0.3 0.3 0.3 0.3 0.3 0.3 0.3 0.3 0.3 0.3 0.3 0.3
          0.3 0.3 0.3 0.3 0.3 0.3 0.3 0.3 0.3 0.3 0.3 0.3
          0.3 0.3 0.3 0.3 0.3 0.3 0.3 0.3 0.3 0.3 0.3 0.3
          0.3 0.3 0.3 0.3 0.3 0.3 0.3 0.3 0.3 0.3 0.3 0.3
          0.3 0.3 0.3 0.3 0.3 0.3 0.3 0.3 0.3 0.3 0.3 0.3
          0.3 0.3 0.3 0.3 0.3 0.3 0.3 0.3 0.3 0.3 0.3 0.3
          0.3 0.3 0.3 0.3 0.3 0.3 0.3 0.3 0.3 0.3 0.3 0.3
          0.3 0.3 0.3 0.3 0.3 0.3 0.3 0.3 0.3 0.3 0.3 0.3
          0.3 0.3 0.3 0.3 0.3
        </DataArray>
        <DataArray type="Float32" Name="moleFrac_l^H2O" NumberOfComponents="1" format="ascii">
          0.315516 0.315635 0.315499 0.31557 0.315692 0.315617 0.315723 0.315639 0.315499 0.315491 0.315488 0.315483
          0.315488 0.315483 0.315489 0.315483 0.315564 0.315556 0.318297 0.318189 0.318445 0.318342 0.318758 0.318653
          0.31924 0.319131 0.319903 0.319787 0.320758 0.320634 0.321822 0.321687 0.323109 0.32296 0.324652 0.324484
          0.326766 0.326544 0.332726 0.332168 0.367147 0.364683 0.54236 0.535204 0.999988 0.999988 0.999988 0.999988
          0.999979 0.999979 0.315492 0.315535 0.315566 0.315581 0.315488 0.315483 0.315483 0.315483 0.31555 0.318059
          0.31821 0.318514 0.318979 0.319617 0.32044 0.321462 0.322696 0.324166 0.326086 0.330847 0.357902 0.509897
          0.999988 0.999988 0.999979 0.315488 0.315513 0.315532 0.315541 0.315486 0.315483 0.315483 0.315483 0.315545
          0.317909 0.318053 0.318344 0.318789 0.319398 0.320183 0.321156 0.322328 0.323717 0.325457 0.329194 0.349561
          0.473515 0.999988 0.999988 0.999979 0.315486 0.315497 0.315506 0.315512 0.315484 0.315483 0.315483 0.315483
          0.315539 0.317739 0.317875 0.318149 0.318566 0.319136 0.31987 0.320779 0.321871 0.323158 0.324706 0.327456
          0.341845 0.448044 0.999988 0.999988 0.999981 0.315479 0.315481 0.315485 0.315488 0.315483 0.315483 0.315483
          0.315483 0.315533 0.317554 0.31768 0.317932 0.318317 0.318841 0.319515 0.320346 0.321344 0.322513 0.323869
          0.325621 0.330514 0.365492 0.588463 0.999988 0.999989 0.315462 0.315463 0.315465 0.315466 0.315482 0.315483
          0.315483 0.315483 0.315528 0.317358 0.317472 0.317701 0.318049 0.318523 0.319129 0.319875 0.320766 0.321805
          0.322996 0.324368 0.326349 0.3338 0.382353 0.585253 0.408639 0.315442 0.315442 0.315443 0.315444 0.315482
          0.315483 0.315483 0.315483 0.315522 0.317156 0.317258 0.317462 0.317772 0.318192 0.318727 0.319383 0.320162
          0.321063 0.322084 0.323219 0.32449 0.326338 0.33266 0.35768 0.335252 0.315419 0.315419 0.315419 0.31542
          0.315481 0.315483 0.315483 0.315483 0.315516 0.316952 0.317042 0.317222 0.317493 0.317859 0.318324 0.31889
          0.319556 0.320319 0.32117 0.32209 0.323044 0.323987 0.325094 0.327496 0.325955 0.315392 0.315392 0.315393
          0.315393 0.31548 0.315483 0.315483 0.315483 0.315511 0.31675 0.316829 0.316985 0.317219 0.317534 0.317932
          0.318411 0.318971 0.319605 0.320298 0.321029 0.321757 0.322424 0.322974 0.323422 0.323446 0.315362 0.315362
          0.315362 0.315363 0.315479 0.315483 0.315483 0.315483 0.315505 0.316555 0.316624 0.316758 0.316958 0.317227
          0.317562 0.317964 0.318428 0.318946 0.319503 0.320078 0.320637 0.321137 0.321533 0.321791 0.321874 0.315326
          0.315327 0.315327 0.315328 0.315478 0.315483 0.315483 0.315483 0.3155 0.316369 0.316428 0.316543 0.316715
          0.316943 0.317225 0.317559 0.317941 0.318361 0.318807 0.319259 0.31969 0.320071 0.32037 0.320561 0.320627
          0.315286 0.315287 0.315287 0.315288 0.315476 0.315483 0.315483 0.315483 0.315495 0.316191 0.316244 0.316345
          0.316494 0.316688 0.316926 0.317205 0.317519 0.317862 0.31822 0.318578 0.318915 0.31921 0.319439 0.319585
          0.319635 0.31524 0.315241 0.315243 0.315244 0.315474 0.315482 0.315483 0.315483 0.31549 0.316022 0.316072
          0.316165 0.316297 0.316466 0.31667 0.316906 0.31717 0.317453 0.317746 0.318035 0.318304 0.318537 0.318718
          0.318832 0.318872 0.315186 0.315188 0.315196 0.315194 0.315467 0.315477 0.315478 0.31548 0.315484 0.315856
          0.315909 0.316004 0.316128 0.31628 0.316461 0.316667 0.316894 0.317136 0.317384 0.317626 0.31785 0.318042
          0.318191 0.318284 0.318316 0.315121 0.315125 0.315141 0.315185 0.315225 0.315296 0.315369 0.315452 0.315558
          0.315654 0.315766 0.315869 0.31599 0.316133 0.316299 0.316487 0.316693 0.316911 0.317133 0.317348 0.317545
          0.317715 0.317844 0.317926 0.317954 0.315042 0.315047 0.315067 0.315101 0.315149 0.31521 0.315282 0.315365
          0.315457 0.315555 0.315657 0.315765 0.315886 0.316026 0.316187 0.316369 0.316568 0.316778 0.316991 0.317197
          0.317386 0.317547 0.317671 0.317749 0.317775
        </DataArray>
        <DataArray type="Float32" Name="moleFrac_l^N2" NumberOfComponents="1" format="ascii">
          1.14733e-05 1.14777e-05 1.14727e-05 1.14753e-05 1.14797e-05 1.1477e-05 1.14808e-05 1.14778e-05 1.14727e-05 1.14724e-05 1.14723e-05 1.14721e-05
          1.14723e-05 1.14721e-05 1.14723e-05 1.14721e-05 1.14751e-05 1.14748e-05 1.15745e-05 1.15705e-05 1.15798e-05 1.15761e-05 1.15912e-05 1.15874e-05
          1.16088e-05 1.16048e-05 1.16328e-05 1.16286e-05 1.1664e-05 1.16594e-05 1.17026e-05 1.16977e-05 1.17494e-05 1.1744e-05 1.18047e-05 1.17986e-05
          1.18689e-05 1.1862e-05 1.19415e-05 1.19335e-05 1.20148e-05 1.20053e-05 1.20508e-05 1.2039e-05 1.2002e-05 1.19844e-05 1.22413e-05 1.2226e-05
          2.14624e-05 2.10328e-05 1.14724e-05 1.1474e-05 1.14751e-05 1.14757e-05 1.14723e-05 1.14721e-05 1.14721e-05 1.14721e-05 1.14746e-05 1.15658e-05
          1.15713e-05 1.15823e-05 1.15993e-05 1.16224e-05 1.16524e-05 1.16895e-05 1.17344e-05 1.17873e-05 1.18484e-05 1.19169e-05 1.19852e-05 1.20146e-05
          1.19279e-05 1.21175e-05 2.09953e-05 1.14723e-05 1.14732e-05 1.14739e-05 1.14742e-05 1.14722e-05 1.14721e-05 1.14721e-05 1.14721e-05 1.14744e-05
          1.15603e-05 1.15656e-05 1.15762e-05 1.15923e-05 1.16145e-05 1.1643e-05 1.16784e-05 1.1721e-05 1.17712e-05 1.1829e-05 1.18935e-05 1.19583e-05
          1.19869e-05 1.18534e-05 1.19047e-05 2.08982e-05 1.14722e-05 1.14726e-05 1.1473e-05 1.14732e-05 1.14722e-05 1.14721e-05 1.14721e-05 1.14721e-05
          1.14742e-05 1.15542e-05 1.15591e-05 1.15691e-05 1.15842e-05 1.1605e-05 1.16317e-05 1.16647e-05 1.17044e-05 1.17511e-05 1.18048e-05 1.1865e-05
          1.19275e-05 1.19608e-05 1.18233e-05 1.16859e-05 1.91832e-05 1.1472e-05 1.1472e-05 1.14722e-05 1.14723e-05 1.14721e-05 1.14721e-05 1.14721e-05
          1.14721e-05 1.1474e-05 1.15474e-05 1.1552e-05 1.15612e-05 1.15752e-05 1.15942e-05 1.16187e-05 1.1649e-05 1.16852e-05 1.17277e-05 1.17766e-05
          1.18319e-05 1.18932e-05 1.19541e-05 1.19766e-05 1.2207e-05 1.12578e-05 1.14714e-05 1.14714e-05 1.14715e-05 1.14715e-05 1.14721e-05 1.14721e-05
          1.14721e-05 1.14721e-05 1.14737e-05 1.15403e-05 1.15445e-05 1.15528e-05 1.15654e-05 1.15827e-05 1.16047e-05 1.16318e-05 1.16642e-05 1.1702e-05
          1.17453e-05 1.17941e-05 1.18488e-05 1.19103e-05 1.19727e-05 1.19083e-05 1.19325e-05 1.14706e-05 1.14706e-05 1.14707e-05 1.14707e-05 1.14721e-05
          1.14721e-05 1.14721e-05 1.14721e-05 1.14735e-05 1.15329e-05 1.15367e-05 1.15441e-05 1.15554e-05 1.15706e-05 1.15901e-05 1.16139e-05 1.16423e-05
          1.1675e-05 1.17122e-05 1.17533e-05 1.1798e-05 1.18444e-05 1.18812e-05 1.18893e-05 1.18991e-05 1.14698e-05 1.14698e-05 1.14698e-05 1.14698e-05
          1.1472e-05 1.14721e-05 1.14721e-05 1.14721e-05 1.14733e-05 1.15255e-05 1.15288e-05 1.15353e-05 1.15452e-05 1.15585e-05 1.15754e-05 1.1596e-05