<?xml version="1.0"?>
<VTKFile type="UnstructuredGrid" version="0.1" byte_order="LittleEndian">
  <UnstructuredGrid>
    <Piece NumberOfCells="384" NumberOfPoints="425">
      <PointData Scalars="pressure_l">
        <DataArray type="Float32" Name="pressure_l" NumberOfComponents="1" format="ascii">
          100000 99990.3 99994.1 99964.8 99971.1 99940.3 99961 99926.3 99048.1 99045.2 99004.9 99003.3
          99004.3 99002.7 99004.5 99002.9 99026.7 99024.2 99836.2 99802.4 99880.7 99848.6 99975.2 99942.4
          100121 100087 100323 100287 100584 100546 100911 100869 101309 101263 101784 101732
          102339 102280 102984 102913 103731 103641 104611 104485 105670 105518 107839 107685
          188270 184586 99988.8 99937.8 99901.1 99882.5 99042.7 99003.3 99002.7 99002.9 99022.5 99762.8
          99808.2 99899.8 100041 100235 100486 100800 101181 101634 102162 102766 103444 104191
          105021 106731 184264 99979.8 99896.4 99847.3 99825.5 99039.3 99003.2 99002.7 99002.9 99020.9
          99717.1 99760.6 99848.3 99982.8 100168 100407 100706 101068 101496 101994 102559 103184
          103831 104366 104852 183431 99934.4 99820.4 99773.4 99753 99035.1 99003.1 99002.7 99002.8
          99019.2 99666 99707 99789.3 99915.4 100088 100312 100590 100927 101325 101785 102309
          102892 103519 104093 102909 168440 99726 99709.2 99681.8 99667.4 99030.4 99003.1 99002.7
          99002.8 99017.5 99610.6 99648.5 99724.4 99840.3 99999.1 100204 100458 100764 101126 101544
          102020 102561 103196 104100 107425 99141 99599.2 99594 99583.2 99575.2 99025.4 99003
          99002.7 99002.8 99015.8 99552.2 99586.5 99655.3 99760 99903.1 100087 100314 100587 100908
          101276 101694 102168 102718 103409 103489 103134 99494.2 99492.2 99487.5 99483.4 99020.8
          99002.9 99002.7 99002.8 99014.1 99492.1 99522.8 99583.9 99676.9 99803.5 99965.5 100165 100403
          100679 100995 101346 101729 102130 102463 102608 102620 99402.6 99401.7 99399.4 99397
          99016.7 99002.9 99002.7 99002.8 99012.5 99431.6 99458.6 99512.2 99593.5 99703.5 99843.7 100015
          100218 100451 100713 100997 101292 101573 101797 101929 101969 99321.7 99321.2 99319.9
          99318.2 99013.2 99002.8 99002.7 99002.8 99010.8 99372.1 99395.5 99441.9 99511.9 99606.2 99725.6
          99870.4 100040 100233 100445 100669 100894 101099 101262 101365 101400 99250.2 99249.9
          99249 99247.8 99010.4 99002.8 99002.7 99002.7 99009.3 99314.5 99334.7 99374.4 99434.1 99514.1
          99614.6 99735.3 99875.3 100032 100202 100377 100548 100702 100823 100901 100927 99187.3
          99187.1 99186.4 99185.4 99008 99002.7 99002.7 99002.7 99007.8 99259.5 99276.9 99311 99361.7
          99429.2 99513.2 99613.2 99727.9 99854.6 99989.5 100127 100258 100374 100465 100524 100544
          99132.2 99132 99131.3 99130.4 99005.9 99002.7 99002.7 99002.7 99006.3 99207.6 99222.8 99252.3
          99295.8 99353 99423.5 99506.4 99600.5 99703.2 99810.9 99918.8 100021 100110 100180 100224
          100239 99084 99083.7 99082.9 99081.9 99004.1 99002.7 99002.7 99002.7 99004.8 99158.5 99172.4
          99198.9 99237.2 99286.6 99346.6 99416.5 99494.7 99579.2 99666.8 99753.5 99834.5 99904.7 99959.1
          99993.6 100005 99042.2 99041.8 99040.5 99039 99002.2 99002.2 99002.3 99002.4 99003.3 99111.2
          99125.2 99151.5 99186.7 99230.8 99283.5 99344 99411.2 99483 99556.8 99629 99696 99753.6
          99798 99826.1 99835.7 99006.2 99005.7 99004 98999.7 98998.9 98998.9 99004.6 99016.3 99036.7
          99054.7 99083.3 99111.2 99145 99186.1 99234.4 99289.5 99350.1 99414.5 99480.1 99544.1 99603
          99653.4 99692.1 99716.5 99724.8 98976 98975.5 98973.6 98971.3 98970.2 98971.6 98977.4 98988.9
          99005.4 99025.8 99050.5 99079.2 99112.8 99152.8 99199.7 99253 99311.4 99373.3 99436.3 99497.5
          99553.7 99601.8 99638.7 99661.9 99669.8
        </DataArray>
        <DataArray type="Float32" Name="pressure_g" NumberOfComponents="1" format="ascii">
          100000 99990.3 99994.1 99964.8 99971.1 99940.3 99961 99926.3 99048.1 99045.2 99004.9 99003.3
          99004.3 99002.7 99004.5 99002.9 99026.7 99024.2 99836.2 99802.4 99880.7 99848.6 99975.2 99942.4
          100121 100087 100323 100287 100584 100546 100911 100869 101309 101263 101784 101732
          102339 102280 102984 102913 103731 103641 104611 104485 105670 105518 107839 107685
          188270 184586 99988.8 99937.8 99901.1 99882.5 99042.7 99003.3 99002.7 99002.9 99022.5 99762.8
          99808.2 99899.8 100041 100235 100486 100800 101181 101634 102162 102766 103444 104191
          105021 106731 184264 99979.8 99896.4 99847.3 99825.5 99039.3 99003.2 99002.7 99002.9 99020.9
          99717.1 99760.6 99848.3 99982.8 100168 100407 100706 101068 101496 101994 102559 103184
          103831 104366 104852 183431 99934.4 99820.4 99773.4 99753 99035.1 99003.1 99002.7 99002.8
          99019.2 99666 99707 99789.3 99915.4 100088 100312 100590 100927 101325 101785 102309
          102892 103519 104093 102909 168440 99726 99709.2 99681.8 99667.4 99030.4 99003.1 99002.7
          99002.8 99017.5 99610.6 99648.5 99724.4 99840.3 99999.1 100204 100458 100764 101126 101544
          102020 102561 103196 104100 107425 99141 99599.2 99594 99583.2 99575.2 99025.4 99003
          99002.7 99002.8 99015.8 99552.2 99586.5 99655.3 99760 99903.1 100087 100314 100587 100908
          101276 101694 102168 102718 103409 103489 103134 99494.2 99492.2 99487.5 99483.4 99020.8
          99002.9 99002.7 99002.8 99014.1 99492.1 99522.8 99583.9 99676.9 99803.5 99965.5 100165 100403
          100679 100995 101346 101729 102130 102463 102608 102620 99402.6 99401.7 99399.4 99397
          99016.7 99002.9 99002.7 99002.8 99012.5 99431.6 99458.6 99512.2 99593.5 99703.5 99843.7 100015
          100218 100451 100713 100997 101292 101573 101797 101929 101969 99321.7 99321.2 99319.9
          99318.2 99013.2 99002.8 99002.7 99002.8 99010.8 99372.1 99395.5 99441.9 99511.9 99606.2 99725.6
          99870.4 100040 100233 100445 100669 100894 101099 101262 101365 101400 99250.2 99249.9
          99249 99247.8 99010.4 99002.8 99002.7 99002.7 99009.3 99314.5 99334.7 99374.4 99434.1 99514.1
          99614.6 99735.3 99875.3 100032 100202 100377 100548 100702 100823 100901 100927 99187.3
          99187.1 99186.4 99185.4 99008 99002.7 99002.7 99002.7 99007.8 99259.5 99276.9 99311 99361.7
          99429.2 99513.2 99613.2 99727.9 99854.6 99989.5 100127 100258 100374 100465 100524 100544
          99132.2 99132 99131.3 99130.4 99005.9 99002.7 99002.7 99002.7 99006.3 99207.6 99222.8 99252.3
          99295.8 99353 99423.5 99506.4 99600.5 99703.2 99810.9 99918.8 100021 100110 100180 100224
          100239 99084 99083.7 99082.9 99081.9 99004.1 99002.7 99002.7 99002.7 99004.8 99158.5 99172.4
          99198.9 99237.2 99286.6 99346.6 99416.5 99494.7 99579.2 99666.8 99753.5 99834.5 99904.7 99959.1
          99993.6 100005 99042.2 99041.8 99040.5 99039 99002.2 99002.2 99002.3 99002.4 99003.3 99111.2
          99125.2 99151.5 99186.7 99230.8 99283.5 99344 99411.2 99483 99556.8 99629 99696 99753.6
          99798 99826.1 99835.7 99006.2 99005.7 99004 98999.7 98998.9 98998.9 99004.6 99016.3 99036.7
          99054.7 99083.3 99111.2 99145 99186.1 99234.4 99289.5 99350.1 99414.5 99480.1 99544.1 99603
          99653.4 99692.1 99716.5 99724.8 98976 98975.5 98973.6 98971.3 98970.2 98971.6 98977.4 98988.9
          99005.4 99025.8 99050.5 99079.2 99112.8 99152.8 99199.7 99253 99311.4 99373.3 99436.3 99497.5
          99553.7 99601.8 99638.7 99661.9 99669.8
        </DataArray>
        <DataArray type="Float32" Name="density_l" NumberOfComponents="1" format="ascii">
          997.048 997.048 997.048 997.048 997.048 997.048 997.048 997.048 997.047 997.047 997.047 997.047
          997.047 997.047 997.047 997.047 997.047 997.047 997.048 997.048 997.048 997.048 997.048 997.048
          997.048 997.048 997.048 997.048 997.048 997.048 997.048 997.048 997.048 997.048 997.048 997.048
          997.049 997.049 997.049 997.049 997.049 997.049 997.05 997.05 997.05 997.05 997.051 997.051
          997.087 997.086 997.048 997.048 997.048 997.048 997.047 997.047 997.047 997.047 997.047 997.048
          997.048 997.048 997.048 997.048 997.048 997.048 997.048 997.048 997.049 997.049 997.049 997.05
          997.05 997.051 997.086 997.048 997.048 997.048 997.048 997.047 997.047 997.047 997.047 997.047
          997.048 997.048 997.048 997.048 997.048 997.048 997.048 997.048 997.048 997.049 997.049 997.049
          997.049 997.05 997.05 997.085 997.048 997.048 997.048 997.048 997.047 997.047 997.047 997.047
          997.047 997.048 997.048 997.048 997.048 997.048 997.048 997.048 997.048 997.048 997.048 997.049
          997.049 997.049 997.049 997.049 997.078 997.048 997.048 997.048 997.048 997.047 997.047 997.047
          997.047 997.047 997.047 997.047 997.048 997.048 997.048 997.048 997.048 997.048 997.048 997.048
          997.049 997.049 997.049 997.049 997.051 997.047 997.047 997.047 997.047 997.047 997.047 997.047
          997.047 997.047 997.047 997.047 997.047 997.047 997.048 997.048 997.048 997.048 997.048 997.048
          997.048 997.048 997.049 997.049 997.049 997.049 997.049 997.047 997.047 997.047 997.047 997.047
          997.047 997.047 997.047 997.047 997.047 997.047 997.047 997.048 997.048 997.048 997.048 997.048
          997.048 997.048 997.048 997.048 997.049 997.049 997.049 997.049 997.047 997.047 997.047 997.047
          997.047 997.047 997.047 997.047 997.047 997.047 997.047 997.047 997.047 997.048 997.048 997.048
          997.048 997.048 997.048 997.048 997.048 997.048 997.048 997.049 997.049 997.047 997.047 997.047
          997.047 997.047 997.047 997.047 997.047 997.047 997.047 997.047 997.047 997.047 997.047 997.048
          997.048 997.048 997.048 997.048 997.048 997.048 997.048 997.048 997.048 997.048 997.047 997.047
          997.047 997.047 997.047 997.047 997.047 997.047 997.047 997.047 997.047 997.047 997.047 997.047
          997.047 997.048 997.048 997.048 997.048 997.048 997.048 997.048 997.048 997.048 997.048 997.047
          997.047 997.047 997.047 997.047 997.047 997.047 997.047 997.047 997.047 997.047 997.047 997.047
          997.047 997.047 997.047 997.048 997.048 997.048 997.048 997.048 997.048 997.048 997.048 997.048
          997.047 997.047 997.047 997.047 997.047 997.047 997.047 997.047 997.047 997.047 997.047 997.047
          997.047 997.047 997.047 997.047 997.047 997.048 997.048 997.048 997.048 997.048 997.048 997.048
          997.048 997.047 997.047 997.047 997.047 997.047 997.047 997.047 997.047 997.047 997.047 997.047
          997.047 997.047 997.047 997.047 997.047 997.047 997.047 997.048 997.048 997.048 997.048 997.048
          997.048 997.048 997.047 997.047 997.047 997.047 997.047 997.047 997.047 997.047 997.047 997.047
          997.047 997.047 997.047 997.047 997.047 997.047 997.047 997.047 997.047 997.047 997.048 997.048
          997.048 997.048 997.048 997.047 997.047 997.047 997.047 997.047 997.047 997.047 997.047 997.047
          997.047 997.047 997.047 997.047 997.047 997.047 997.047 997.047 997.047 997.047 997.047 997.047
          997.047 997.048 997.048 997.048 997.047 997.047 997.047 997.047 997.047 997.047 997.047 997.047
          997.047 997.047 997.047 997.047 997.047 997.047 997.047 997.047 997.047 997.047 997.047 997.047
          997.047 997.047 997.047 997.048 997.048
        </DataArray>
        <DataArray type="Float32" Name="density_g" NumberOfComponents="1" format="ascii">
          1.13002 1.1299 1.12995 1.12962 1.12969 1.12934 1.12957 1.12918 1.11926 1.11922 1.11877 1.11875
          1.11876 1.11874 1.11876 1.11875 1.11902 1.11899 1.12816 1.12778 1.12867 1.1283 1.12973 1.12936
          1.13138 1.131 1.13366 1.13325 1.13662 1.13618 1.14031 1.13984 1.14481 1.14429 1.15017 1.14958
          1.15645 1.15578 1.16373 1.16293 1.17218 1.17115 1.18212 1.1807 1.19409 1.19237 1.2186 1.21686
          2.12751 2.08587 1.12989 1.12931 1.1289 1.12869 1.1192 1.11875 1.11874 1.11875 1.11897 1.12733
          1.12785 1.12888 1.13047 1.13266 1.13551 1.13905 1.14336 1.14848 1.15444 1.16127 1.16893 1.17737
          1.18676 1.20607 2.08223 1.12979 1.12884 1.12829 1.12804 1.11916 1.11875 1.11874 1.11875 1.11895
          1.12682 1.12731 1.1283 1.12982 1.13191 1.13462 1.13799 1.14208 1.14692 1.15255 1.15894 1.16599
          1.1733 1.17935 1.18485 2.07282 1.12927 1.12798 1.12745 1.12722 1.11911 1.11875 1.11874 1.11875
          1.11893 1.12624 1.1267 1.12763 1.12906 1.13101 1.13354 1.13668 1.14049 1.14498 1.15019 1.15611
          1.1627 1.16978 1.17626 1.16289 1.90342 1.12692 1.12673 1.12642 1.12626 1.11906 1.11875 1.11874
          1.11875 1.11891 1.12561 1.12604 1.1269 1.12821 1.13 1.13232 1.13519 1.13865 1.14273 1.14746
          1.15284 1.15896 1.16613 1.17635 1.21392 1.12031 1.12548 1.12543 1.1253 1.12521 1.119 1.11875
          1.11874 1.11875 1.11889 1.12495 1.12534 1.12612 1.1273 1.12892 1.131 1.13357 1.13665 1.14027
          1.14444 1.14916 1.15451 1.16073 1.16854 1.16945 1.16543 1.1243 1.12428 1.12422 1.12418 1.11895
          1.11875 1.11874 1.11874 1.11887 1.12427 1.12462 1.12531 1.12636 1.12779 1.12962 1.13188 1.13456
          1.13769 1.14125 1.14522 1.14955 1.15408 1.15785 1.15948 1.15962 1.12326 1.12325 1.12323 1.1232
          1.1189 1.11875 1.11874 1.11874 1.11885 1.12359 1.1239 1.1245 1.12542 1.12666 1.12825 1.13018
          1.13248 1.13511 1.13807 1.14128 1.14461 1.14779 1.15032 1.15181 1.15226 1.12235 1.12234 1.12233
          1.12231 1.11886 1.11875 1.11874 1.11874 1.11884 1.12292 1.12318 1.12371 1.1245 1.12556 1.12691
          1.12855 1.13047 1.13265 1.13504 1.13758 1.14011 1.14243 1.14428 1.14544 1.14583 1.12154 1.12154
          1.12153 1.12151 1.11883 1.11874 1.11874 1.11874 1.11882 1.12227 1.1225 1.12294 1.12362 1.12452
          1.12566 1.12702 1.12861 1.13038 1.13229 1.13428 1.13621 1.13794 1.13932 1.14019 1.14049 1.12083
          1.12083 1.12082 1.12081 1.1188 1.11874 1.11874 1.11874 1.1188 1.12165 1.12184 1.12223 1.1228
          1.12356 1.12451 1.12564 1.12694 1.12837 1.1299 1.13144 1.13293 1.13424 1.13527 1.13593 1.13616
          1.12021 1.1202 1.1202 1.12019 1.11878 1.11874 1.11874 1.11874 1.11878 1.12106 1.12123 1.12156
          1.12206 1.1227 1.1235 1.12444 1.1255 1.12666 1.12788 1.1291 1.13025 1.13126 1.13204 1.13254
          1.13272 1.11966 1.11966 1.11965 1.11964 1.11876 1.11874 1.11874 1.11874 1.11877 1.1205 1.12066
          1.12096 1.12139 1.12195 1.12263 1.12342 1.1243 1.12526 1.12625 1.12723 1.12814 1.12894 1.12955
          1.12994 1.13008 1.11919 1.11919 1.11917 1.11915 1.11874 1.11874 1.11874 1.11874 1.11875 1.11997
          1.12013 1.12043 1.12082 1.12132 1.12192 1.1226 1.12336 1.12417 1.12501 1.12582 1.12658 1.12723
          1.12773 1.12805 1.12816 1.11878 1.11878 1.11876 1.11871 1.1187 1.1187 1.11877 1.1189 1.11913
          1.11933 1.11965 1.11997 1.12035 1.12082 1.12136 1.12198 1.12267 1.1234 1.12414 1.12486 1.12553
          1.1261 1.12653 1.12681 1.1269 1.11844 1.11844 1.11842 1.11839 1.11838 1.11839 1.11846 1.11859
          1.11877 1.11901 1.11928 1.11961 1.11999 1.12044 1.12097 1.12157 1.12223 1.12293 1.12364 1.12434
          1.12497 1.12551 1.12593 1.12619 1.12628
        </DataArray>
        <DataArray type="Float32" Name="saturation_l" NumberOfComponents="1" format="ascii">
          7.28882e-06 7.28882e-06 7.28868e-06 7.28868e-06 7.28882e-06 7.28868e-06 7.28882e-06 7.28868e-06 7.28869e-06 7.28869e-06 7.28869e-06 7.28869e-06
          7.28869e-06 7.28869e-06 7.28869e-06 7.28869e-06 7.28869e-06 7.28869e-06 7.28882e-06 7.28868e-06 7.28882e-06 7.28868e-06 7.28882e-06 7.28868e-06
          7.28882e-06 7.28868e-06 7.28882e-06 7.28868e-06 7.28882e-06 7.28868e-06 7.28882e-06 7.28868e-06 7.28882e-06 7.28868e-06 7.28882e-06 7.28868e-06
          7.28881e-06 7.28868e-06 7.28881e-06 7.28867e-06 7.28881e-06 7.28867e-06 7.36848e-06 7.34896e-06 0.00228914 0.00200538 0.431603 0.370935
          0.995492 0.995119 7.28868e-06 7.28868e-06 7.28868e-06 7.28868e-06 7.28869e-06 7.28869e-06 7.28869e-06 7.28869e-06 7.28869e-06 7.28868e-06
          7.28868e-06 7.28868e-06 7.28868e-06 7.28868e-06 7.28868e-06 7.28868e-06 7.28868e-06 7.28868e-06 7.28868e-06 7.28867e-06 7.28867e-06 7.31742e-06
          0.00153551 0.370705 0.995228 7.28868e-06 7.28868e-06 7.28868e-06 7.28868e-06 7.28869e-06 7.28869e-06 7.28869e-06 7.28869e-06 7.28869e-06
          7.28868e-06 7.28868e-06 7.28868e-06 7.28868e-06 7.28868e-06 7.28868e-06 7.28868e-06 7.28868e-06 7.28868e-06 7.28868e-06 7.28868e-06 7.28867e-06
          7.28991e-06 0.000375532 0.35208 0.995585 7.28868e-06 7.28868e-06 7.28868e-06 7.28868e-06 7.28869e-06 7.28869e-06 7.28869e-06 7.28869e-06
          7.28869e-06 7.28868e-06 7.28868e-06 7.28868e-06 7.28868e-06 7.28868e-06 7.28868e-06 7.28868e-06 7.28868e-06 7.28868e-06 7.28868e-06 7.28868e-06
          7.28867e-06 7.28871e-06 3.9611e-05 0.21973 0.993753 7.28868e-06 7.28868e-06 7.28868e-06 7.28868e-06 7.28869e-06 7.28869e-06 7.28869e-06
          7.28869e-06 7.28869e-06 7.28868e-06 7.28868e-06 7.28868e-06 7.28868e-06 7.28868e-06 7.28868e-06 7.28868e-06 7.28868e-06 7.28868e-06 7.28868e-06
          7.28868e-06 7.28868e-06 7.28867e-06 7.30041e-06 0.000633332 0.088449 7.28868e-06 7.28868e-06 7.28869e-06 7.28869e-06 7.28869e-06 7.28869e-06
          7.28869e-06 7.28869e-06 7.28869e-06 7.28869e-06 7.28869e-06 7.28868e-06 7.28868e-06 7.28868e-06 7.28868e-06 7.28868e-06 7.28868e-06 7.28868e-06
          7.28868e-06 7.28868e-06 7.28868e-06 7.28867e-06 7.28867e-06 7.28867e-06 7.28867e-06 7.28869e-06 7.28869e-06 7.28869e-06 7.28869e-06 7.28869e-06
          7.28869e-06 7.28869e-06 7.28869e-06 7.28869e-06 7.28869e-06 7.28869e-06 7.28869e-06 7.28868e-06 7.28868e-06 7.28868e-06 7.28868e-06 7.28868e-06
          7.28868e-06 7.28868e-06 7.28868e-06 7.28868e-06 7.28868e-06 7.28868e-06 7.28868e-06 7.28868e-06 7.28869e-06 7.28869e-06 7.28869e-06 7.28869e-06
          7.28869e-06 7.28869e-06 7.28869e-06 7.28869e-06 7.28869e-06 7.28869e-06 7.28869e-06 7.28869e-06 7.28868e-06 7.28868e-06 7.28868e-06 7.28868e-06
          7.28868e-06 7.28868e-06 7.28868e-06 7.28868e-06 7.28868e-06 7.28868e-06 7.28868e-06 7.28868e-06 7.28868e-06 7.28869e-06 7.28869e-06 7.28869e-06
          7.28869e-06 7.28869e-06 7.28869e-06 7.28869e-06 7.28869e-06 7.28869e-06 7.28869e-06 7.28869e-06 7.28869e-06 7.28869e-06 7.28868e-06 7.28868e-06
          7.28868e-06 7.28868e-06 7.28868e-06 7.28868e-06 7.28868e-06 7.28868e-06 7.28868e-06 7.28868e-06 7.28868e-06 7.28868e-06 7.28869e-06 7.28869e-06
          7.28869e-06 7.28869e-06 7.28869e-06 7.28869e-06 7.28869e-06 7.28869e-06 7.28869e-06 7.28869e-06 7.28869e-06 7.28869e-06 7.28869e-06 7.28869e-06
          7.28868e-06 7.28868e-06 7.28868e-06 7.28868e-06 7.28868e-06 7.28868e-06 7.28868e-06 7.28868e-06 7.28868e-06 7.28868e-06 7.28868e-06 7.28869e-06
          7.28869e-06 7.28869e-06 7.28869e-06 7.28869e-06 7.28869e-06 7.28869e-06 7.28869e-06 7.28869e-06 7.28869e-06 7.28869e-06 7.28869e-06 7.28869e-06
          7.28869e-06 7.28869e-06 7.28868e-06 7.28868e-06 7.28868e-06 7.28868e-06 7.28868e-06 7.28868e-06 7.28868e-06 7.28868e-06 7.28868e-06 7.28868e-06
          7.28869e-06 7.28869e-06 7.28869e-06 7.28869e-06 7.28869e-06 7.28869e-06 7.28869e-06 7.28869e-06 7.28869e-06 7.28869e-06 7.28869e-06 7.28869e-06
          7.28869e-06 7.28869e-06 7.28869e-06 7.28869e-06 7.28868e-06 7.28868e-06 7.28868e-06 7.28868e-06 7.28868e-06 7.28868e-06 7.28868e-06 7.28868e-06
          7.28868e-06 7.28869e-06 7.28869e-06 7.28869e-06 7.28869e-06 7.28869e-06 7.28869e-06 7.28869e-06 7.28869e-06 7.28869e-06 7.28869e-06 7.28869e-06
          7.28869e-06 7.28869e-06 7.28869e-06 7.28869e-06 7.28869e-06 7.28869e-06 7.28869e-06 7.28868e-06 7.28868e-06 7.28868e-06 7.28868e-06 7.28868e-06
          7.28868e-06 7.28868e-06 7.28869e-06 7.28869e-06 7.28869e-06 7.28869e-06 7.28869e-06 7.28869e-06 7.28869e-06 7.28869e-06 7.28869e-06 7.28869e-06
          7.28869e-06 7.28869e-06 7.28869e-06 7.28869e-06 7.28869e-06 7.28869e-06 7.28869e-06 7.28869e-06 7.28869e-06 7.28868e-06 7.28868e-06 7.28868e-06
          7.28868e-06 7.28868e-06 7.28868e-06 7.28869e-06 7.28869e-06 7.28869e-06 7.28869e-06 7.28876e-06 7.28876e-06 7.28876e-06 7.28876e-06 7.28876e-06
          7.28869e-06 7.28869e-06 7.28869e-06 7.28869e-06 7.28869e-06 7.28869e-06 7.28869e-06 7.28869e-06 7.28869e-06 7.28869e-06 7.28869e-06 7.28868e-06
          7.28868e-06 7.28868e-06 7.28868e-06 7.28868e-06 7.28855e-06 7.28855e-06 7.28855e-06 7.28855e-06 7.28855e-06 7.28855e-06 7.28855e-06 7.28855e-06
          7.28855e-06 7.28855e-06 7.28855e-06 7.28855e-06 7.28855e-06 7.28855e-06 7.28855e-06 7.28855e-06 7.28855e-06 7.28855e-06 7.28855e-06 7.28855e-06
          7.28855e-06 7.28855e-06 7.28855e-06 7.28855e-06 7.28855e-06
        </DataArray>
        <DataArray type="Float32" Name="saturation_g" NumberOfComponents="1" format="ascii">
          0.999993 0.999993 0.999993 0.999993 0.999993 0.999993 0.999993 0.999993 0.999993 0.999993 0.999993 0.999993
          0.999993 0.999993 0.999993 0.999993 0.999993 0.999993 0.999993 0.999993 0.999993 0.999993 0.999993 0.999993
          0.999993 0.999993 0.999993 0.999993 0.999993 0.999993 0.999993 0.999993 0.999993 0.999993 0.999993 0.999993
          0.999993 0.999993 0.999993 0.999993 0.999993 0.999993 0.999993 0.999993 0.997711 0.997995 0.568397 0.629065
          0.00450754 0.00488109 0.999993 0.999993 0.999993 0.999993 0.999993 0.999993 0.999993 0.999993 0.999993 0.999993
          0.999993 0.999993 0.999993 0.999993 0.999993 0.999993 0.999993 0.999993 0.999993 0.999993 0.999993 0.999993
          0.998464 0.629295 0.00477164 0.999993 0.999993 0.999993 0.999993 0.999993 0.999993 0.999993 0.999993 0.999993
          0.999993 0.999993 0.999993 0.999993 0.999993 0.999993 0.999993 0.999993 0.999993 0.999993 0.999993 0.999993
          0.999993 0.999624 0.64792 0.00441454 0.999993 0.999993 0.999993 0.999993 0.999993 0.999993 0.999993 0.999993
          0.999993 0.999993 0.999993 0.999993 0.999993 0.999993 0.999993 0.999993 0.999993 0.999993 0.999993 0.999993
          0.999993 0.999993 0.99996 0.78027 0.00624705 0.999993 0.999993 0.999993 0.999993 0.999993 0.999993 0.999993
          0.999993 0.999993 0.999993 0.999993 0.999993 0.999993 0.999993 0.999993 0.999993 0.999993 0.999993 0.999993
          0.999993 0.999993 0.999993 0.999993 0.999367 0.911551 0.999993 0.999993 0.999993 0.999993 0.999993 0.999993
          0.999993 0.999993 0.999993 0.999993 0.999993 0.999993 0.999993 0.999993 0.999993 0.999993 0.999993 0.999993
          0.999993 0.999993 0.999993 0.999993 0.999993 0.999993 0.999993 0.999993 0.999993 0.999993 0.999993 0.999993
          0.999993 0.999993 0.999993 0.999993 0.999993 0.999993 0.999993 0.999993 0.999993 0.999993 0.999993 0.999993
          0.999993 0.999993 0.999993 0.999993 0.999993 0.999993 0.999993 0.999993 0.999993 0.999993 0.999993 0.999993
          0.999993 0.999993 0.999993 0.999993 0.999993 0.999993 0.999993 0.999993 0.999993 0.999993 0.999993 0.999993
          0.999993 0.999993 0.999993 0.999993 0.999993 0.999993 0.999993 0.999993 0.999993 0.999993 0.999993 0.999993
          0.999993 0.999993 0.999993 0.999993 0.999993 0.999993 0.999993 0.999993 0.999993 0.999993 0.999993 0.999993
          0.999993 0.999993 0.999993 0.999993 0.999993 0.999993 0.999993 0.999993 0.999993 0.999993 0.999993 0.999993
          0.999993 0.999993 0.999993 0.999993 0.999993 0.999993 0.999993 0.999993 0.999993 0.999993 0.999993 0.999993
          0.999993 0.999993 0.999993 0.999993 0.999993 0.999993 0.999993 0.999993 0.999993 0.999993 0.999993 0.999993
          0.999993 0.999993 0.999993 0.999993 0.999993 0.999993 0.999993 0.999993 0.999993 0.999993 0.999993 0.999993
          0.999993 0.999993 0.999993 0.999993 0.999993 0.999993 0.999993 0.999993 0.999993 0.999993 0.999993 0.999993
          0.999993 0.999993 0.999993 0.999993 0.999993 0.999993 0.999993 0.999993 0.999993 0.999993 0.999993 0.999993
          0.999993 0.999993 0.999993 0.999993 0.999993 0.999993 0.999993 0.999993 0.999993 0.999993 0.999993 0.999993
          0.999993 0.999993 0.999993 0.999993 0.999993 0.999993 0.999993 0.999993 0.999993 0.999993 0.999993 0.999993
          0.999993 0.999993 0.999993 0.999993 0.999993 0.999993 0.999993 0.999993 0.999993 0.999993 0.999993 0.999993
          0.999993 0.999993 0.999993 0.999993 0.999993 0.999993 0.999993 0.999993 0.999993 0.999993 0.999993 0.999993
          0.999993 0.999993 0.999993 0.999993 0.999993 0.999993 0.999993 0.999993 0.999993 0.999993 0.999993 0.999993
          0.999993 0.999993 0.999993 0.999993 0.999993 0.999993 0.999993 0.999993 0.999993 0.999993 0.999993 0.999993
          0.999993 0.999993 0.999993 0.999993 0.999993 0.999993 0.999993 0.999993 0.999993 0.999993 0.999993 0.999993
          0.999993 0.999993 0.999993 0.999993 0.999993 0.999993 0.999993 0.999993 0.999993 0.999993 0.999993 0.999993
          0.999993 0.999993 0.999993 0.999993 0.999993 0.999993 0.999993 0.999993 0.999993 0.999993 0.999993 0.999993
          0.999993 0.999993 0.999993 0.999993 0.999993
        </DataArray>
        <DataArray type="Float32" Name="relativePerm_l" NumberOfComponents="1" format="ascii">
          4.72248e-10 4.72248e-10 4.7223e-10 4.7223e-10 4.72248e-10 4.7223e-10 4.72248e-10 4.7223e-10 4.7223e-10 4.7223e-10 4.7223e-10 4.7223e-10
          4.7223e-10 4.7223e-10 4.7223e-10 4.7223e-10 4.7223e-10 4.7223e-10 4.72248e-10 4.7223e-10 4.72248e-10 4.7223e-10 4.72248e-10 4.7223e-10
          4.72248e-10 4.7223e-10 4.72248e-10 4.7223e-10 4.72248e-10 4.7223e-10 4.72248e-10 4.7223e-10 4.72247e-10 4.72229e-10 4.72247e-10 4.72229e-10
          4.72247e-10 4.72229e-10 4.72247e-10 4.72229e-10 4.72246e-10 4.72228e-10 4.82626e-10 4.80073e-10 4.68459e-05 3.59262e-05 0.427803 0.363764
          0.999817 0.999786 4.7223e-10 4.7223e-10 4.7223e-10 4.7223e-10 4.7223e-10 4.7223e-10 4.7223e-10 4.7223e-10 4.7223e-10 4.7223e-10
          4.7223e-10 4.7223e-10 4.7223e-10 4.7223e-10 4.7223e-10 4.7223e-10 4.7223e-10 4.72229e-10 4.72229e-10 4.72229e-10 4.72229e-10 4.75962e-10
          2.10386e-05 0.363522 0.999795 4.7223e-10 4.7223e-10 4.7223e-10 4.7223e-10 4.7223e-10 4.7223e-10 4.7223e-10 4.7223e-10 4.7223e-10
          4.7223e-10 4.7223e-10 4.7223e-10 4.7223e-10 4.7223e-10 4.7223e-10 4.7223e-10 4.7223e-10 4.72229e-10 4.72229e-10 4.72229e-10 4.72229e-10
          4.72388e-10 1.25472e-06 0.343862 0.999825 4.7223e-10 4.7223e-10 4.7223e-10 4.7223e-10 4.7223e-10 4.7223e-10 4.7223e-10 4.7223e-10
          4.7223e-10 4.7223e-10 4.7223e-10 4.7223e-10 4.7223e-10 4.7223e-10 4.7223e-10 4.7223e-10 4.7223e-10 4.72229e-10 4.72229e-10 4.72229e-10
          4.72229e-10 4.72233e-10 1.39484e-08 0.204159 0.999648 4.7223e-10 4.7223e-10 4.7223e-10 4.7223e-10 4.7223e-10 4.7223e-10 4.7223e-10
          4.7223e-10 4.7223e-10 4.7223e-10 4.7223e-10 4.7223e-10 4.7223e-10 4.7223e-10 4.7223e-10 4.7223e-10 4.7223e-10 4.7223e-10 4.72229e-10
          4.72229e-10 4.72229e-10 4.72229e-10 4.73751e-10 3.57106e-06 0.065585 4.7223e-10 4.7223e-10 4.7223e-10 4.7223e-10 4.7223e-10 4.7223e-10
          4.7223e-10 4.7223e-10 4.7223e-10 4.7223e-10 4.7223e-10 4.7223e-10 4.7223e-10 4.7223e-10 4.7223e-10 4.7223e-10 4.7223e-10 4.7223e-10
          4.72229e-10 4.72229e-10 4.72229e-10 4.72229e-10 4.72229e-10 4.72229e-10 4.72229e-10 4.7223e-10 4.7223e-10 4.7223e-10 4.7223e-10 4.7223e-10
          4.7223e-10 4.7223e-10 4.7223e-10 4.7223e-10 4.7223e-10 4.7223e-10 4.7223e-10 4.7223e-10 4.7223e-10 4.7223e-10 4.7223e-10 4.7223e-10
          4.7223e-10 4.7223e-10 4.72229e-10 4.72229e-10 4.72229e-10 4.72229e-10 4.72229e-10 4.72229e-10 4.7223e-10 4.7223e-10 4.7223e-10 4.7223e-10
          4.7223e-10 4.7223e-10 4.7223e-10 4.7223e-10 4.7223e-10 4.7223e-10 4.7223e-10 4.7223e-10 4.7223e-10 4.7223e-10 4.7223e-10 4.7223e-10
          4.7223e-10 4.7223e-10 4.7223e-10 4.7223e-10 4.72229e-10 4.72229e-10 4.72229e-10 4.72229e-10 4.72229e-10 4.7223e-10 4.7223e-10 4.7223e-10
          4.7223e-10 4.7223e-10 4.7223e-10 4.7223e-10 4.7223e-10 4.7223e-10 4.7223e-10 4.7223e-10 4.7223e-10 4.7223e-10 4.7223e-10 4.7223e-10
          4.7223e-10 4.7223e-10 4.7223e-10 4.7223e-10 4.7223e-10 4.7223e-10 4.7223e-10 4.72229e-10 4.72229e-10 4.72229e-10 4.7223e-10 4.7223e-10
          4.7223e-10 4.7223e-10 4.7223e-10 4.7223e-10 4.7223e-10 4.7223e-10 4.7223e-10 4.7223e-10 4.7223e-10 4.7223e-10 4.7223e-10 4.7223e-10
          4.7223e-10 4.7223e-10 4.7223e-10 4.7223e-10 4.7223e-10 4.7223e-10 4.7223e-10 4.7223e-10 4.7223e-10 4.7223e-10 4.7223e-10 4.7223e-10
          4.7223e-10 4.7223e-10 4.7223e-10 4.7223e-10 4.7223e-10 4.7223e-10 4.7223e-10 4.7223e-10 4.7223e-10 4.7223e-10 4.7223e-10 4.7223e-10
          4.7223e-10 4.7223e-10 4.7223e-10 4.7223e-10 4.7223e-10 4.7223e-10 4.7223e-10 4.7223e-10 4.7223e-10 4.7223e-10 4.7223e-10 4.7223e-10
          4.7223e-10 4.7223e-10 4.7223e-10 4.7223e-10 4.7223e-10 4.7223e-10 4.7223e-10 4.7223e-10 4.7223e-10 4.7223e-10 4.7223e-10 4.7223e-10
          4.7223e-10 4.7223e-10 4.7223e-10 4.7223e-10 4.7223e-10 4.7223e-10 4.7223e-10 4.7223e-10 4.7223e-10 4.7223e-10 4.7223e-10 4.7223e-10
          4.7223e-10 4.7223e-10 4.7223e-10 4.7223e-10 4.7223e-10 4.7223e-10 4.7223e-10 4.7223e-10 4.7223e-10 4.7223e-10 4.7223e-10 4.7223e-10
          4.7223e-10 4.7223e-10 4.7223e-10 4.7223e-10 4.7223e-10 4.7223e-10 4.7223e-10 4.7223e-10 4.7223e-10 4.7223e-10 4.7223e-10 4.7223e-10
          4.7223e-10 4.7223e-10 4.7223e-10 4.7223e-10 4.7223e-10 4.7223e-10 4.7223e-10 4.7223e-10 4.7223e-10 4.7223e-10 4.7223e-10 4.7223e-10
          4.7223e-10 4.7223e-10 4.7223e-10 4.7223e-10 4.7223e-10 4.7223e-10 4.7223e-10 4.7223e-10 4.7223e-10 4.7223e-10 4.7223e-10 4.7223e-10
          4.7223e-10 4.7223e-10 4.7223e-10 4.7223e-10 4.7223e-10 4.7223e-10 4.7223e-10 4.72239e-10 4.72239e-10 4.72239e-10 4.72239e-10 4.72239e-10
          4.7223e-10 4.7223e-10 4.7223e-10 4.7223e-10 4.7223e-10 4.7223e-10 4.7223e-10 4.7223e-10 4.7223e-10 4.7223e-10 4.7223e-10 4.7223e-10