<?xml version="1.0"?>
<VTKFile type="UnstructuredGrid" version="0.1" byte_order="LittleEndian">
  <UnstructuredGrid>
    <Piece NumberOfCells="384" NumberOfPoints="425">
      <PointData Scalars="pressure_liquid">
        <DataArray type="Float32" Name="pressure_liquid" NumberOfComponents="1" format="ascii">
          99999.3 99985.6 99991.8 99959.6 99964.2 99933.1 99953.1 99918.2 99047.7 99044.8 99004.9 99003.3
          99004.3 99002.7 99004.5 99002.9 99026.4 99023.8 99799.2 99765.7 99841.4 99809.5 99931.2 99898.7
          100070 100037 100263 100228 100515 100476 100830 100789 101216 101170 101677 101626
          102218 102160 102844 102775 103566 103479 104410 104288 105418 105267 107304 107266
          185911 181595 99985.2 99931.4 99893 99873.8 99042.2 99003.3 99002.7 99002.9 99022.1 99726.9
          99770 99857.1 99991.3 100177 100418 100721 101090 101531 102045 102633 103291 104008
          104793 106327 181183 99973.8 99887.9 99838.1 99815.9 99038.9 99003.2 99002.7 99002.9 99020.5
          99682.6 99723.9 99807.1 99935.2 100112 100342 100629 100980 101396 101882 102433 103041
          103668 104176 104509 180149 99920.9 99810 99763.2 99742.7 99034.7 99003.1 99002.7 99002.9
          99018.9 99633.3 99672.1 99750.2 99870 100035 100249 100517 100843 101229 101678 102190
          102760 103373 103936 102900 163936 99714.6 99698.2 99671.1 99656.8 99029.9 99003.1 99002.7
          99002.8 99017.2 99580.1 99615.9 99687.7 99797.8 99949 100145 100389 100685 101035 101442
          101908 102438 103061 103945 107127 99338.6 99588.5 99583.4 99572.7 99564.8 99025.1 99003
          99002.7 99002.8 99015.6 99524.1 99556.6 99621.5 99720.7 99856.7 100032 100250 100513 100823
          101181 101590 102053 102593 103268 103366 103043 99484.4 99482.4 99477.8 99473.6 99020.5
          99002.9 99002.7 99002.8 99013.9 99466.7 99495.6 99553.3 99641.2 99761.1 99915.2 100106 100334
          100601 100906 101248 101623 102016 102347 102496 102513 99393.8 99392.9 99390.6 99388.2
          99016.5 99002.9 99002.7 99002.8 99012.3 99409 99434.4 99484.9 99561.4 99665.4 99798.4 99961.5
          100155 100380 100632 100908 101195 101471 101692 101824 101865 99314.1 99313.6 99312.3
          99310.7 99013.1 99002.8 99002.7 99002.8 99010.7 99352.3 99374.3 99417.8 99483.5 99572.4 99685.2
          99822.6 99984.2 100169 100372 100589 100806 101007 101167 101269 101303 99243.9 99243.5
          99242.7 99241.5 99010.3 99002.8 99002.7 99002.7 99009.2 99297.3 99316.3 99353.5 99409.4 99484.5
          99579.1 99693.1 99825.9 99975.2 100137 100306 100470 100619 100737 100813 100839 99182.2
          99182 99181.3 99180.3 99007.9 99002.7 99002.7 99002.7 99007.7 99244.9 99261.1 99292.9 99340.3
          99403.4 99482.3 99576.3 99684.5 99804.5 99932.7 100063 100189 100301 100389 100445 100464
          99128.2 99128 99127.4 99126.5 99005.9 99002.7 99002.7 99002.7 99006.2 99195.2 99209.4 99236.8
          99277.4 99330.7 99396.6 99474.3 99562.6 99659.3 99761.1 99863.3 99960.2 100045 100112 100154
          100169 99081 99080.7 99080 99079 99004.1 99002.7 99002.7 99002.7 99004.8 99148.2 99161.1
          99185.7 99221.3 99267.2 99323.1 99388.3 99461.5 99540.6 99622.9 99704.5 99780.9 99847.3 99898.9
          99931.6 99942.9 99039.9 99039.5 99038.4 99036.8 99002.2 99002.2 99002.3 99002.4 99003.3 99102.7
          99115.7 99140.1 99172.7 99213.5 99262.5 99318.8 99381.4 99448.4 99517.3 99585 99647.8 99701.9
          99743.7 99770.1 99779.1 99004.4 99004 99002.4 98998.4 98997.8 98997.9 99003.1 99013.9 99032.5
          99048.9 99075.1 99100.8 99132.2 99170.2 99215 99266.1 99322.4 99382.3 99443.4 99503.1 99558.1
          99605.2 99641.4 99664.3 99672.1 98974.4 98973.9 98972.2 98970.1 98969.1 98970.6 98975.9 98986.5
          99001.5 99020.2 99042.8 99069.3 99100.3 99137.4 99180.8 99230.2 99284.4 99342 99400.5 99457.5
          99510 99554.9 99589.3 99611 99618.4
        </DataArray>
        <DataArray type="Float32" Name="pressure_gas" NumberOfComponents="1" format="ascii">
          99999.3 99985.6 99991.8 99959.6 99964.2 99933.1 99953.1 99918.2 99047.7 99044.8 99004.9 99003.3
          99004.3 99002.7 99004.5 99002.9 99026.4 99023.8 99799.2 99765.7 99841.4 99809.5 99931.2 99898.7
          100070 100037 100263 100228 100515 100476 100830 100789 101216 101170 101677 101626
          102218 102160 102844 102775 103566 103479 104410 104288 105418 105267 107304 107266
          185911 181595 99985.2 99931.4 99893 99873.8 99042.2 99003.3 99002.7 99002.9 99022.1 99726.9
          99770 99857.1 99991.3 100177 100418 100721 101090 101531 102045 102633 103291 104008
          104793 106327 181183 99973.8 99887.9 99838.1 99815.9 99038.9 99003.2 99002.7 99002.9 99020.5
          99682.6 99723.9 99807.1 99935.2 100112 100342 100629 100980 101396 101882 102433 103041
          103668 104176 104509 180149 99920.9 99810 99763.2 99742.7 99034.7 99003.1 99002.7 99002.9
          99018.9 99633.3 99672.1 99750.2 99870 100035 100249 100517 100843 101229 101678 102190
          102760 103373 103936 102900 163936 99714.6 99698.2 99671.1 99656.8 99029.9 99003.1 99002.7
          99002.8 99017.2 99580.1 99615.9 99687.7 99797.8 99949 100145 100389 100685 101035 101442
          101908 102438 103061 103945 107127 99338.6 99588.5 99583.4 99572.7 99564.8 99025.1 99003
          99002.7 99002.8 99015.6 99524.1 99556.6 99621.5 99720.7 99856.7 100032 100250 100513 100823
          101181 101590 102053 102593 103268 103366 103043 99484.4 99482.4 99477.8 99473.6 99020.5
          99002.9 99002.7 99002.8 99013.9 99466.7 99495.6 99553.3 99641.2 99761.1 99915.2 100106 100334
          100601 100906 101248 101623 102016 102347 102496 102513 99393.8 99392.9 99390.6 99388.2
          99016.5 99002.9 99002.7 99002.8 99012.3 99409 99434.4 99484.9 99561.4 99665.4 99798.4 99961.5
          100155 100380 100632 100908 101195 101471 101692 101824 101865 99314.1 99313.6 99312.3
          99310.7 99013.1 99002.8 99002.7 99002.8 99010.7 99352.3 99374.3 99417.8 99483.5 99572.4 99685.2
          99822.6 99984.2 100169 100372 100589 100806 101007 101167 101269 101303 99243.9 99243.5
          99242.7 99241.5 99010.3 99002.8 99002.7 99002.7 99009.2 99297.3 99316.3 99353.5 99409.4 99484.5
          99579.1 99693.1 99825.9 99975.2 100137 100306 100470 100619 100737 100813 100839 99182.2
          99182 99181.3 99180.3 99007.9 99002.7 99002.7 99002.7 99007.7 99244.9 99261.1 99292.9 99340.3
          99403.4 99482.3 99576.3 99684.5 99804.5 99932.7 100063 100189 100301 100389 100445 100464
          99128.2 99128 99127.4 99126.5 99005.9 99002.7 99002.7 99002.7 99006.2 99195.2 99209.4 99236.8
          99277.4 99330.7 99396.6 99474.3 99562.6 99659.3 99761.1 99863.3 99960.2 100045 100112 100154
          100169 99081 99080.7 99080 99079 99004.1 99002.7 99002.7 99002.7 99004.8 99148.2 99161.1
          99185.7 99221.3 99267.2 99323.1 99388.3 99461.5 99540.6 99622.9 99704.5 99780.9 99847.3 99898.9
          99931.6 99942.9 99039.9 99039.5 99038.4 99036.8 99002.2 99002.2 99002.3 99002.4 99003.3 99102.7
          99115.7 99140.1 99172.7 99213.5 99262.5 99318.8 99381.4 99448.4 99517.3 99585 99647.8 99701.9
          99743.7 99770.1 99779.1 99004.4 99004 99002.4 98998.4 98997.8 98997.9 99003.1 99013.9 99032.5
          99048.9 99075.1 99100.8 99132.2 99170.2 99215 99266.1 99322.4 99382.3 99443.4 99503.1 99558.1
          99605.2 99641.4 99664.3 99672.1 98974.4 98973.9 98972.2 98970.1 98969.1 98970.6 98975.9 98986.5
          99001.5 99020.2 99042.8 99069.3 99100.3 99137.4 99180.8 99230.2 99284.4 99342 99400.5 99457.5
          99510 99554.9 99589.3 99611 99618.4
        </DataArray>
        <DataArray type="Float32" Name="density_liquid" NumberOfComponents="1" format="ascii">
          997.048 997.048 997.048 997.048 997.048 997.048 997.048 997.048 997.047 997.047 997.047 997.047
          997.047 997.047 997.047 997.047 997.047 997.047 997.048 997.048 997.048 997.048 997.048 997.048
          997.048 997.048 997.048 997.048 997.048 997.048 997.048 997.048 997.048 997.048 997.048 997.048
          997.049 997.049 997.049 997.049 997.049 997.049 997.05 997.05 997.05 997.05 997.051 997.051
          997.086 997.084 997.048 997.048 997.048 997.048 997.047 997.047 997.047 997.047 997.047 997.048
          997.048 997.048 997.048 997.048 997.048 997.048 997.048 997.048 997.049 997.049 997.049 997.049
          997.05 997.051 997.084 997.048 997.048 997.048 997.048 997.047 997.047 997.047 997.047 997.047
          997.048 997.048 997.048 997.048 997.048 997.048 997.048 997.048 997.048 997.049 997.049 997.049
          997.049 997.05 997.05 997.084 997.048 997.048 997.048 997.048 997.047 997.047 997.047 997.047
          997.047 997.047 997.048 997.048 997.048 997.048 997.048 997.048 997.048 997.048 997.048 997.049
          997.049 997.049 997.049 997.049 997.076 997.048 997.048 997.048 997.048 997.047 997.047 997.047
          997.047 997.047 997.047 997.047 997.048 997.048 997.048 997.048 997.048 997.048 997.048 997.048
          997.049 997.049 997.049 997.049 997.051 997.047 997.047 997.047 997.047 997.047 997.047 997.047
          997.047 997.047 997.047 997.047 997.047 997.047 997.048 997.048 997.048 997.048 997.048 997.048
          997.048 997.048 997.049 997.049 997.049 997.049 997.049 997.047 997.047 997.047 997.047 997.047
          997.047 997.047 997.047 997.047 997.047 997.047 997.047 997.047 997.048 997.048 997.048 997.048
          997.048 997.048 997.048 997.048 997.049 997.049 997.049 997.049 997.047 997.047 997.047 997.047
          997.047 997.047 997.047 997.047 997.047 997.047 997.047 997.047 997.047 997.048 997.048 997.048
          997.048 997.048 997.048 997.048 997.048 997.048 997.048 997.048 997.049 997.047 997.047 997.047
          997.047 997.047 997.047 997.047 997.047 997.047 997.047 997.047 997.047 997.047 997.047 997.048
          997.048 997.048 997.048 997.048 997.048 997.048 997.048 997.048 997.048 997.048 997.047 997.047
          997.047 997.047 997.047 997.047 997.047 997.047 997.047 997.047 997.047 997.047 997.047 997.047
          997.047 997.048 997.048 997.048 997.048 997.048 997.048 997.048 997.048 997.048 997.048 997.047
          997.047 997.047 997.047 997.047 997.047 997.047 997.047 997.047 997.047 997.047 997.047 997.047
          997.047 997.047 997.047 997.048 997.048 997.048 997.048 997.048 997.048 997.048 997.048 997.048
          997.047 997.047 997.047 997.047 997.047 997.047 997.047 997.047 997.047 997.047 997.047 997.047
          997.047 997.047 997.047 997.047 997.047 997.048 997.048 997.048 997.048 997.048 997.048 997.048
          997.048 997.047 997.047 997.047 997.047 997.047 997.047 997.047 997.047 997.047 997.047 997.047
          997.047 997.047 997.047 997.047 997.047 997.047 997.047 997.047 997.048 997.048 997.048 997.048
          997.048 997.048 997.047 997.047 997.047 997.047 997.047 997.047 997.047 997.047 997.047 997.047
          997.047 997.047 997.047 997.047 997.047 997.047 997.047 997.047 997.047 997.047 997.047 997.048
          997.048 997.048 997.048 997.047 997.047 997.047 997.047 997.047 997.047 997.047 997.047 997.047
          997.047 997.047 997.047 997.047 997.047 997.047 997.047 997.047 997.047 997.047 997.047 997.047
          997.047 997.047 997.048 997.048 997.047 997.047 997.047 997.047 997.047 997.047 997.047 997.047
          997.047 997.047 997.047 997.047 997.047 997.047 997.047 997.047 997.047 997.047 997.047 997.047
          997.047 997.047 997.047 997.047 997.047
        </DataArray>
        <DataArray type="Float32" Name="density_gas" NumberOfComponents="1" format="ascii">
          1.13001 1.12985 1.12992 1.12956 1.12961 1.12926 1.12948 1.12909 1.11925 1.11922 1.11877 1.11875
          1.11876 1.11874 1.11876 1.11875 1.11901 1.11898 1.12775 1.12737 1.12822 1.12786 1.12924 1.12887
          1.13081 1.13043 1.13299 1.13259 1.13583 1.1354 1.1394 1.13893 1.14376 1.14324 1.14896 1.14839
          1.15508 1.15442 1.16215 1.16138 1.17031 1.16933 1.17984 1.17848 1.19124 1.18953 1.21255 1.21212
          2.10085 2.05208 1.12985 1.12924 1.12881 1.12859 1.11919 1.11875 1.11874 1.11875 1.11896 1.12693
          1.12741 1.1284 1.12992 1.13201 1.13474 1.13816 1.14234 1.14731 1.15312 1.15977 1.1672 1.17531
          1.18418 1.20151 2.04742 1.12972 1.12875 1.12818 1.12793 1.11915 1.11875 1.11874 1.11875 1.11895
          1.12643 1.12689 1.12783 1.12928 1.13128 1.13387 1.13712 1.14108 1.14579 1.15128 1.15751 1.16438
          1.17146 1.17721 1.18097 2.03573 1.12912 1.12787 1.12734 1.12711 1.11911 1.11875 1.11874 1.11875
          1.11893 1.12587 1.12631 1.12719 1.12855 1.13041 1.13283 1.13586 1.13953 1.1439 1.14898 1.15477
          1.16121 1.16813 1.17449 1.16278 1.85252 1.12679 1.1266 1.1263 1.12614 1.11905 1.11875 1.11874
          1.11875 1.11891 1.12527 1.12567 1.12649 1.12773 1.12944 1.13165 1.13441 1.13775 1.14171 1.14631
          1.15158 1.15757 1.1646 1.1746 1.21056 1.12254 1.12536 1.12531 1.12519 1.1251 1.119 1.11875
          1.11874 1.11875 1.11889 1.12464 1.125 1.12574 1.12686 1.12839 1.13038 1.13284 1.13581 1.13931
          1.14336 1.14798 1.15322 1.15932 1.16695 1.16805 1.1644 1.12419 1.12416 1.12411 1.12407 1.11895
          1.11875 1.11874 1.11874 1.11887 1.12399 1.12431 1.12497 1.12596 1.12731 1.12906 1.13121 1.13379
          1.13681 1.14026 1.14412 1.14835 1.1528 1.15653 1.15822 1.15842 1.12316 1.12315 1.12313 1.1231
          1.1189 1.11875 1.11874 1.11874 1.11885 1.12334 1.12362 1.12419 1.12506 1.12623 1.12774 1.12958
          1.13177 1.13431 1.13716 1.14027 1.14352 1.14663 1.14914 1.15063 1.15109 1.12226 1.12226 1.12224
          1.12222 1.11886 1.11875 1.11874 1.11874 1.11883 1.12269 1.12294 1.12343 1.12418 1.12518 1.12646
          1.12801 1.12984 1.13192 1.13422 1.13667 1.13913 1.14139 1.1432 1.14435 1.14474 1.12147 1.12147
          1.12146 1.12144 1.11883 1.11874 1.11874 1.11874 1.11882 1.12207 1.12229 1.12271 1.12334 1.12419
          1.12526 1.12655 1.12805 1.12973 1.13156 1.13347 1.13533 1.13701 1.13834 1.1392 1.13949 1.12077
          1.12077 1.12076 1.12075 1.1188 1.11874 1.11874 1.11874 1.1188 1.12148 1.12166 1.12202 1.12256
          1.12327 1.12416 1.12523 1.12645 1.12781 1.12925 1.13073 1.13215 1.13341 1.13441 1.13504 1.13526
          1.12016 1.12016 1.12015 1.12014 1.11878 1.11874 1.11874 1.11874 1.11878 1.12092 1.12108 1.12139
          1.12185 1.12245 1.1232 1.12407 1.12507 1.12616 1.12731 1.12847 1.12956 1.13053 1.13128 1.13176
          1.13192 1.11963 1.11963 1.11962 1.11961 1.11876 1.11874 1.11874 1.11874 1.11877 1.12039 1.12053
          1.12081 1.12121 1.12173 1.12236 1.1231 1.12393 1.12482 1.12575 1.12667 1.12754 1.12829 1.12887
          1.12924 1.12937 1.11916 1.11916 1.11915 1.11913 1.11874 1.11874 1.11874 1.11874 1.11875 1.11987
          1.12002 1.1203 1.12066 1.12113 1.12168 1.12232 1.12302 1.12378 1.12456 1.12532 1.12603 1.12665
          1.12712 1.12742 1.12752 1.11876 1.11876 1.11874 1.1187 1.11869 1.11869 1.11875 1.11887 1.11908
          1.11927 1.11956 1.11985 1.12021 1.12064 1.12114 1.12172 1.12236 1.12303 1.12372 1.1244 1.12502
          1.12555 1.12596 1.12622 1.12631 1.11842 1.11842 1.1184 1.11838 1.11836 1.11838 1.11844 1.11856
          1.11873 1.11894 1.1192 1.1195 1.11985 1.12027 1.12076 1.12131 1.12193 1.12258 1.12324 1.12388
          1.12448 1.12498 1.12537 1.12562 1.1257
        </DataArray>
        <DataArray type="Float32" Name="saturation_liquid" NumberOfComponents="1" format="ascii">
          9.41182e-06 9.42406e-06 7.27844e-06 7.29005e-06 9.42414e-06 7.29002e-06 9.42412e-06 7.29e-06 7.2909e-06 7.28875e-06 7.29082e-06 7.28869e-06
          7.29082e-06 7.28869e-06 7.29082e-06 7.28869e-06 7.29086e-06 7.28872e-06 9.42382e-06 7.28979e-06 9.42394e-06 7.28985e-06 9.42411e-06 7.28997e-06
          9.42439e-06 7.29017e-06 9.42477e-06 7.29043e-06 9.42527e-06 7.29078e-06 9.42589e-06 7.2912e-06 9.42664e-06 7.29171e-06 9.42751e-06 7.2923e-06
          9.42851e-06 7.29297e-06 9.42965e-06 7.2937e-06 9.44489e-06 7.30363e-06 1.57698e-05 1.18729e-05 0.00228066 0.0018342 0.39962 0.337864
          0.999994 0.999989 7.27578e-06 7.29e-06 7.28996e-06 7.28993e-06 7.28874e-06 7.28869e-06 7.28869e-06 7.28869e-06 7.28872e-06 7.28973e-06
          7.28979e-06 7.28991e-06 7.2901e-06 7.29036e-06 7.29069e-06 7.2911e-06 7.2916e-06 7.29217e-06 7.29282e-06 7.29352e-06 7.29921e-06 9.99349e-06
          0.00132705 0.336506 0.99999 7.27112e-06 7.28992e-06 7.28987e-06 7.28985e-06 7.28874e-06 7.28869e-06 7.28869e-06 7.28869e-06 7.28871e-06
          7.28967e-06 7.28972e-06 7.28984e-06 7.29002e-06 7.29027e-06 7.29058e-06 7.29098e-06 7.29145e-06 7.29199e-06 7.2926e-06 7.29327e-06 7.29508e-06
          7.83899e-06 0.000293517 0.31467 0.999994 7.26892e-06 7.2898e-06 7.28976e-06 7.28974e-06 7.28873e-06 7.28869e-06 7.28869e-06 7.28869e-06
          7.28871e-06 7.28959e-06 7.28965e-06 7.28976e-06 7.28993e-06 7.29016e-06 7.29045e-06 7.29082e-06 7.29126e-06 7.29177e-06 7.29234e-06 7.29297e-06
          7.2942e-06 7.58336e-06 0.000107565 0.17835 0.999882 7.28966e-06 7.28966e-06 7.28963e-06 7.28962e-06 7.28873e-06 7.28869e-06 7.28869e-06
          7.28869e-06 7.28871e-06 7.28952e-06 7.28957e-06 7.28967e-06 7.28982e-06 7.29003e-06 7.29031e-06 7.29064e-06 7.29104e-06 7.29151e-06 7.29203e-06
          7.29261e-06 7.29323e-06 7.29734e-06 9.69922e-06 0.000591346 0.0631181 7.28951e-06 7.2895e-06 7.28949e-06 7.28948e-06 7.28872e-06 7.28869e-06
          7.28869e-06 7.28869e-06 7.28871e-06 7.28944e-06 7.28948e-06 7.28957e-06 7.28971e-06 7.2899e-06 7.29015e-06 7.29045e-06 7.29081e-06 7.29122e-06
          7.29169e-06 7.2922e-06 7.29276e-06 7.29335e-06 7.29406e-06 7.29196e-06 7.2938e-06 7.28937e-06 7.28936e-06 7.28936e-06 7.28935e-06 7.28871e-06
          7.28869e-06 7.28869e-06 7.28869e-06 7.2887e-06 7.28935e-06 7.28939e-06 7.28948e-06 7.2896e-06 7.28977e-06 7.28998e-06 7.29025e-06 7.29056e-06
          7.29092e-06 7.29132e-06 7.29176e-06 7.29223e-06 7.29269e-06 7.29298e-06 7.29313e-06 7.29322e-06 7.28924e-06 7.28924e-06 7.28924e-06 7.28923e-06
          7.28871e-06 7.28869e-06 7.28869e-06 7.28869e-06 7.2887e-06 7.28927e-06 7.28931e-06 7.28938e-06 7.28949e-06 7.28963e-06 7.28982e-06 7.29004e-06
          7.29031e-06 7.29062e-06 7.29096e-06 7.29132e-06 7.29168e-06 7.29202e-06 7.29227e-06 7.29242e-06 7.29247e-06 7.28913e-06 7.28913e-06 7.28913e-06
          7.28912e-06 7.2887e-06 7.28869e-06 7.28869e-06 7.28869e-06 7.2887e-06 7.28919e-06 7.28922e-06 7.28928e-06 7.28937e-06 7.2895e-06 7.28966e-06
          7.28985e-06 7.29007e-06 7.29033e-06 7.2906e-06 7.29089e-06 7.29118e-06 7.29143e-06 7.29163e-06 7.29175e-06 7.29179e-06 7.28903e-06 7.28903e-06
          7.28903e-06 7.28902e-06 7.2887e-06 7.28869e-06 7.28869e-06 7.28869e-06 7.2887e-06 7.28911e-06 7.28914e-06 7.28919e-06 7.28927e-06 7.28937e-06
          7.28951e-06 7.28967e-06 7.28985e-06 7.29006e-06 7.29028e-06 7.29051e-06 7.29073e-06 7.29092e-06 7.29108e-06 7.29117e-06 7.29121e-06 7.28894e-06
          7.28894e-06 7.28894e-06 7.28894e-06 7.28869e-06 7.28869e-06 7.28869e-06 7.28869e-06 7.28869e-06 7.28903e-06 7.28906e-06 7.2891e-06 7.28917e-06
          7.28926e-06 7.28937e-06 7.2895e-06 7.28965e-06 7.28982e-06 7.29e-06 7.29018e-06 7.29035e-06 7.2905e-06 7.29062e-06 7.29069e-06 7.29071e-06
          7.28884e-06 7.28884e-06 7.28884e-06 7.28884e-06 7.28869e-06 7.28869e-06 7.28869e-06 7.28869e-06 7.28869e-06 7.28894e-06 7.28896e-06 7.289e-06
          7.28905e-06 7.28913e-06 7.28922e-06 7.28933e-06 7.28946e-06 7.28959e-06 7.28974e-06 7.28988e-06 7.29001e-06 7.29013e-06 7.29022e-06 7.29028e-06
          7.2903e-06 7.28828e-06 7.28828e-06 7.28828e-06 7.28828e-06 7.28869e-06 7.28869e-06 7.28869e-06 7.28869e-06 7.28869e-06 7.28838e-06 7.2884e-06
          7.28843e-06 7.28848e-06 7.28855e-06 7.28863e-06 7.28872e-06 7.28883e-06 7.28894e-06 7.28905e-06 7.28917e-06 7.28928e-06 7.28937e-06 7.28944e-06
          7.28949e-06 7.2895e-06 7.2792e-06 7.2792e-06 7.2792e-06 7.2792e-06 7.28991e-06 7.28991e-06 7.28991e-06 7.28991e-06 7.28991e-06 7.27929e-06
          7.27931e-06 7.27935e-06 7.27939e-06 7.27945e-06 7.27953e-06 7.27961e-06 7.2797e-06 7.2798e-06 7.2799e-06 7.28e-06 7.28009e-06 7.28017e-06
          7.28023e-06 7.28027e-06 7.28028e-06 7.13845e-06 7.13845e-06 7.13845e-06 7.13844e-06 8.19286e-06 8.19287e-06 8.19287e-06 8.19289e-06 8.19289e-06
          7.13852e-06 7.13855e-06 7.13859e-06 7.13863e-06 7.13869e-06 7.13876e-06 7.13884e-06 7.13893e-06 7.13902e-06 7.13912e-06 7.13922e-06 7.13931e-06
          7.13939e-06 7.13944e-06 7.13948e-06 7.1395e-06 5.47569e-06 5.47569e-06 5.47568e-06 5.47568e-06 5.47568e-06 5.47568e-06 5.47569e-06 5.4757e-06
          5.47572e-06 5.47573e-06 5.47576e-06 5.47578e-06 5.47582e-06 5.47585e-06 5.4759e-06 5.47595e-06 5.47601e-06 5.47607e-06 5.47613e-06 5.47619e-06
          5.47624e-06 5.47629e-06 5.47632e-06 5.47635e-06 5.47635e-06
        </DataArray>
        <DataArray type="Float32" Name="saturation_gas" NumberOfComponents="1" format="ascii">
          0.999991 0.999991 0.999993 0.999993 0.999991 0.999993 0.999991 0.999993 0.999993 0.999993 0.999993 0.999993
          0.999993 0.999993 0.999993 0.999993 0.999993 0.999993 0.999991 0.999993 0.999991 0.999993 0.999991 0.999993
          0.999991 0.999993 0.999991 0.999993 0.999991 0.999993 0.999991 0.999993 0.999991 0.999993 0.999991 0.999993
          0.999991 0.999993 0.999991 0.999993 0.999991 0.999993 0.999984 0.999988 0.997719 0.998166 0.60038 0.662136
          6.35175e-06 1.10153e-05 0.999993 0.999993 0.999993 0.999993 0.999993 0.999993 0.999993 0.999993 0.999993 0.999993
          0.999993 0.999993 0.999993 0.999993 0.999993 0.999993 0.999993 0.999993 0.999993 0.999993 0.999993 0.99999
          0.998673 0.663494 9.71272e-06 0.999993 0.999993 0.999993 0.999993 0.999993 0.999993 0.999993 0.999993 0.999993
          0.999993 0.999993 0.999993 0.999993 0.999993 0.999993 0.999993 0.999993 0.999993 0.999993 0.999993 0.999993
          0.999992 0.999707 0.68533 6.11863e-06 0.999993 0.999993 0.999993 0.999993 0.999993 0.999993 0.999993 0.999993
          0.999993 0.999993 0.999993 0.999993 0.999993 0.999993 0.999993 0.999993 0.999993 0.999993 0.999993 0.999993
          0.999993 0.999992 0.999892 0.82165 0.000117856 0.999993 0.999993 0.999993 0.999993 0.999993 0.999993 0.999993
          0.999993 0.999993 0.999993 0.999993 0.999993 0.999993 0.999993 0.999993 0.999993 0.999993 0.999993 0.999993
          0.999993 0.999993 0.999993 0.99999 0.999409 0.936882 0.999993 0.999993 0.999993 0.999993 0.999993 0.999993
          0.999993 0.999993 0.999993 0.999993 0.999993 0.999993 0.999993 0.999993 0.999993 0.999993 0.999993 0.999993
          0.999993 0.999993 0.999993 0.999993 0.999993 0.999993 0.999993 0.999993 0.999993 0.999993 0.999993 0.999993
          0.999993 0.999993 0.999993 0.999993 0.999993 0.999993 0.999993 0.999993 0.999993 0.999993 0.999993 0.999993
          0.999993 0.999993 0.999993 0.999993 0.999993 0.999993 0.999993 0.999993 0.999993 0.999993 0.999993 0.999993
          0.999993 0.999993 0.999993 0.999993 0.999993 0.999993 0.999993 0.999993 0.999993 0.999993 0.999993 0.999993
          0.999993 0.999993 0.999993 0.999993 0.999993 0.999993 0.999993 0.999993 0.999993 0.999993 0.999993 0.999993
          0.999993 0.999993 0.999993 0.999993 0.999993 0.999993 0.999993 0.999993 0.999993 0.999993 0.999993 0.999993
          0.999993 0.999993 0.999993 0.999993 0.999993 0.999993 0.999993 0.999993 0.999993 0.999993 0.999993 0.999993
          0.999993 0.999993 0.999993 0.999993 0.999993 0.999993 0.999993 0.999993 0.999993 0.999993 0.999993 0.999993
          0.999993 0.999993 0.999993 0.999993 0.999993 0.999993 0.999993 0.999993 0.999993 0.999993 0.999993 0.999993
          0.999993 0.999993 0.999993 0.999993 0.999993 0.999993 0.999993 0.999993 0.999993 0.999993 0.999993 0.999993
          0.999993 0.999993 0.999993 0.999993 0.999993 0.999993 0.999993 0.999993 0.999993 0.999993 0.999993 0.999993
          0.999993 0.999993 0.999993 0.999993 0.999993 0.999993 0.999993 0.999993 0.999993 0.999993 0.999993 0.999993
          0.999993 0.999993 0.999993 0.999993 0.999993 0.999993 0.999993 0.999993 0.999993 0.999993 0.999993 0.999993
          0.999993 0.999993 0.999993 0.999993 0.999993 0.999993 0.999993 0.999993 0.999993 0.999993 0.999993 0.999993
          0.999993 0.999993 0.999993 0.999993 0.999993 0.999993 0.999993 0.999993 0.999993 0.999993 0.999993 0.999993
          0.999993 0.999993 0.999993 0.999993 0.999993 0.999993 0.999993 0.999993 0.999993 0.999993 0.999993 0.999993
          0.999993 0.999993 0.999993 0.999993 0.999993 0.999993 0.999993 0.999993 0.999993 0.999993 0.999993 0.999993
          0.999993 0.999993 0.999993 0.999993 0.999993 0.999993 0.999993 0.999992 0.999992 0.999992 0.999992 0.999992
          0.999993 0.999993 0.999993 0.999993 0.999993 0.999993 0.999993 0.999993 0.999993 0.999993 0.999993 0.999993
          0.999993 0.999993 0.999993 0.999993 0.999995 0.999995 0.999995 0.999995 0.999995 0.999995 0.999995 0.999995
          0.999995 0.999995 0.999995 0.999995 0.999995 0.999995 0.999995 0.999995 0.999995 0.999995 0.999995 0.999995
          0.999995 0.999995 0.999995 0.999995 0.999995
        </DataArray>
        <DataArray type="Float32" Name="relativePerm_liquid" NumberOfComponents="1" format="ascii">
          9.41182e-06 9.42406e-06 7.27844e-06 7.29005e-06 9.42414e-06 7.29002e-06 9.42412e-06 7.29e-06 7.2909e-06 7.28875e-06 7.29082e-06 7.28869e-06
          7.29082e-06 7.28869e-06 7.29082e-06 7.28869e-06 7.29086e-06 7.28872e-06 9.42382e-06 7.28979e-06 9.42394e-06 7.28985e-06 9.42411e-06 7.28997e-06
          9.42439e-06 7.29017e-06 9.42477e-06 7.29043e-06 9.42527e-06 7.29078e-06 9.42589e-06 7.2912e-06 9.42664e-06 7.29171e-06 9.42751e-06 7.2923e-06
          9.42851e-06 7.29297e-06 9.42965e-06 7.2937e-06 9.44489e-06 7.30363e-06 1.57698e-05 1.18729e-05 0.00228066 0.0018342 0.39962 0.337864
          0.999994 0.999989 7.27578e-06 7.29e-06 7.28996e-06 7.28993e-06 7.28874e-06 7.28869e-06 7.28869e-06 7.28869e-06 7.28872e-06 7.28973e-06
          7.28979e-06 7.28991e-06 7.2901e-06 7.29036e-06 7.29069e-06 7.2911e-06 7.2916e-06 7.29217e-06 7.29282e-06 7.29352e-06 7.29921e-06 9.99349e-06
          0.00132705 0.336506 0.99999 7.27112e-06 7.28992e-06 7.28987e-06 7.28985e-06 7.28874e-06 7.28869e-06 7.28869e-06 7.28869e-06 7.28871e-06
          7.28967e-06 7.28972e-06 7.28984e-06 7.29002e-06 7.29027e-06 7.29058e-06 7.29098e-06 7.29145e-06 7.29199e-06 7.2926e-06 7.29327e-06 7.29508e-06
          7.83899e-06 0.000293517 0.31467 0.999994 7.26892e-06 7.2898e-06 7.28976e-06 7.28974e-06 7.28873e-06 7.28869e-06 7.28869e-06 7.28869e-06
          7.28871e-06 7.28959e-06 7.28965e-06 7.28976e-06 7.28993e-06 7.29016e-06 7.29045e-06 7.29082e-06 7.29126e-06 7.29177e-06 7.29234e-06 7.29297e-06
          7.2942e-06 7.58336e-06 0.000107565 0.17835 0.999882 7.28966e-06 7.28966e-06 7.28963e-06 7.28962e-06 7.28873e-06 7.28869e-06 7.28869e-06
          7.28869e-06 7.28871e-06 7.28952e-06 7.28957e-06 7.28967e-06 7.28982e-06 7.29003e-06 7.29031e-06 7.29064e-06 7.29104e-06 7.29151e-06 7.29203e-06
          7.29261e-06 7.29323e-06 7.29734e-06 9.69922e-06 0.000591346 0.0631181 7.28951e-06 7.2895e-06 7.28949e-06 7.28948e-06 7.28872e-06 7.28869e-06
          7.28869e-06 7.28869e-06 7.28871e-06 7.28944e-06 7.28948e-06 7.28957e-06 7.28971e-06 7.2899e-06 7.29015e-06 7.29045e-06 7.29081e-06 7.29122e-06
          7.29169e-06 7.2922e-06 7.29276e-06 7.29335e-06 7.29406e-06 7.29196e-06 7.2938e-06 7.28937e-06 7.28936e-06 7.28936e-06 7.28935e-06 7.28871e-06
          7.28869e-06 7.28869e-06 7.28869e-06 7.2887e-06 7.28935e-06 7.28939e-06 7.28948e-06 7.2896e-06 7.28977e-06 7.28998e-06 7.29025e-06 7.29056e-06
          7.29092e-06 7.29132e-06 7.29176e-06 7.29223e-06 7.29269e-06 7.29298e-06 7.29313e-06 7.29322e-06 7.28924e-06 7.28924e-06 7.28924e-06 7.28923e-06
          7.28871e-06 7.28869e-06 7.28869e-06 7.28869e-06 7.2887e-06 7.28927e-06 7.28931e-06 7.28938e-06 7.28949e-06 7.28963e-06 7.28982e-06 7.29004e-06
          7.29031e-06 7.29062e-06 7.29096e-06 7.29132e-06 7.29168e-06 7.29202e-06 7.29227e-06 7.29242e-06 7.29247e-06 7.28913e-06 7.28913e-06 7.28913e-06
          7.28912e-06 7.2887e-06 7.28869e-06 7.28869e-06 7.28869e-06 7.2887e-06 7.28919e-06 7.28922e-06 7.28928e-06 7.28937e-06 7.2895e-06 7.28966e-06
          7.28985e-06 7.29007e-06 7.29033e-06 7.2906e-06 7.29089e-06 7.29118e-06 7.29143e-06 7.29163e-06 7.29175e-06 7.29179e-06 7.28903e-06 7.28903e-06
          7.28903e-06 7.28902e-06 7.2887e-06 7.28869e-06 7.28869e-06 7.28869e-06 7.2887e-06 7.28911e-06 7.28914e-06 7.28919e-06 7.28927e-06 7.28937e-06
          7.28951e-06 7.28967e-06 7.28985e-06 7.29006e-06 7.29028e-06 7.29051e-06 7.29073e-06 7.29092e-06 7.29108e-06 7.29117e-06 7.29121e-06 7.28894e-06
          7.28894e-06 7.28894e-06 7.28894e-06 7.28869e-06 7.28869e-06 7.28869e-06 7.28869e-06 7.28869e-06 7.28903e-06 7.28906e-06 7.2891e-06 7.28917e-06
          7.28926e-06 7.28937e-06 7.2895e-06 7.28965e-06 7.28982e-06 7.29e-06 7.29018e-06 7.29035e-06 7.2905e-06 7.29062e-06 7.29069e-06 7.29071e-06
          7.28884e-06 7.28884e-06 7.28884e-06 7.28884e-06 7.28869e-06 7.28869e-06 7.28869e-06 7.28869e-06 7.28869e-06 7.28894e-06 7.28896e-06 7.289e-06
          7.28905e-06 7.28913e-06 7.28922e-06 7.28933e-06 7.28946e-06 7.28959e-06 7.28974e-06 7.28988e-06 7.29001e-06 7.29013e-06 7.29022e-06 7.29028e-06
          7.2903e-06 7.28828e-06 7.28828e-06 7.28828e-06 7.28828e-06 7.28869e-06 7.28869e-06 7.28869e-06 7.28869e-06 7.28869e-06 7.28838e-06 7.2884e-06
          7.28843e-06 7.28848e-06 7.28855e-06 7.28863e-06 7.28872e-06 7.28883e-06 7.28894e-06 7.28905e-06 7.28917e-06 7.28928e-06 7.28937e-06 7.28944e-06
          7.28949e-06 7.2895e-06 7.2792e-06 7.2792e-06 7.2792e-06 7.2792e-06 7.28991e-06 7.28991e-06 7.28991e-06 7.28991e-06 7.28991e-06 7.27929e-06
          7.27931e-06 7.27935e-06 7.27939e-06 7.27945e-06 7.27953e-06 7.27961e-06 7.2797e-06 7.2798e-06 7.2799e-06 7.28e-06 7.28009e-06 7.28017e-06