<?xml version="1.0"?>
<VTKFile type="UnstructuredGrid" version="0.1" byte_order="LittleEndian">
  <UnstructuredGrid>
    <Piece NumberOfCells="400" NumberOfPoints="441">
      <PointData Scalars="pressure_l">
        <DataArray type="Float32" Name="pressure_l" NumberOfComponents="1" format="ascii">
          197619 192857 197619 192857 188096 188096 183334 183334 178572 178572 173810 173810
          169048 169048 164287 164287 159525 159525 154763 154763 150001 150001 145239 145239
          140477 140477 135715 135715 130953 130953 126191 126191 121429 121429 116667 116667
          111905 111905 107143 107143 102381 102381 197619 192857 188096 183334 178572 173810
          169048 164287 159525 154763 150001 145239 140477 135715 130953 126191 121429 116667
          111905 107143 102381 197619 192857 188096 183334 178572 173810 169048 164287 159525
          154763 150001 145239 140477 135715 130953 126191 121429 116667 111905 107143 102381
          197619 192857 188096 183334 178572 173810 169048 164287 159525 154763 150001 145239
          140477 135715 130953 126191 121429 116667 111905 107143 102381 197619 192857 188096
          183334 178572 173810 169048 164287 159525 154763 150001 145239 140477 135715 130953
          126191 121429 116667 111905 107143 102381 197619 192857 188096 183334 178572 173810
          169048 164287 159525 154763 150001 145239 140477 135715 130953 126191 121429 116667
          111905 107143 102381 197619 192857 188096 183334 178572 173810 169048 164287 159525
          154763 150001 145239 140477 135715 130953 126191 121429 116667 111905 107143 102381
          197619 192857 188096 183334 178572 173810 169048 164287 159525 154763 150001 145239
          140477 135715 130953 126191 121429 116667 111905 107143 102381 197619 192857 188096
          183334 178572 173810 169048 164287 159525 154763 150001 145239 140477 135715 130953
          126191 121429 116667 111905 107143 102381 197619 192857 188096 183334 178572 173810
          169048 164287 159525 154763 150001 145239 140477 135715 130953 126191 121429 116667
          111905 107143 102381 197619 192857 188096 183334 178572 173810 169048 164287 159525
          154763 150001 145239 140477 135715 130953 126191 121429 116667 111905 107143 102381
          197619 192857 188096 183334 178572 173810 169048 164287 159525 154763 150001 145239
          140477 135715 130953 126191 121429 116667 111905 107143 102381 197619 192857 188096
          183334 178572 173810 169048 164287 159525 154763 150001 145239 140477 135715 130953
          126191 121429 116667 111905 107143 102381 197619 192857 188096 183334 178572 173810
          169048 164287 159525 154763 150001 145239 140477 135715 130953 126191 121429 116667
          111905 107143 102381 197619 192857 188096 183334 178572 173810 169048 164287 159525
          154763 150001 145239 140477 135715 130953 126191 121429 116667 111905 107143 102381
          197619 192857 188096 183334 178572 173810 169048 164287 159525 154763 150001 145239
          140477 135715 130953 126191 121429 116667 111905 107143 102381 197619 192857 188096
          183334 178572 173810 169048 164287 159525 154763 150001 145239 140477 135715 130953
          126191 121429 116667 111905 107143 102381 197619 192857 188096 183334 178572 173810
          169048 164287 159525 154763 150001 145239 140477 135715 130953 126191 121429 116667
          111905 107143 102381 197619 192857 188096 183334 178572 173810 169048 164287 159525
          154763 150001 145239 140477 135715 130953 126191 121429 116667 111905 107143 102381
          197619 192857 188096 183334 178572 173810 169048 164287 159525 154763 150001 145239
          140477 135715 130953 126191 121429 116667 111905 107143 102381
        </DataArray>
        <DataArray type="Float32" Name="density_l" NumberOfComponents="1" format="ascii">
          998.359 998.356 998.359 998.356 998.354 998.354 998.352 998.352 998.35 998.35 998.348 998.348
          998.345 998.345 998.343 998.343 998.341 998.341 998.339 998.339 998.336 998.336 998.334 998.334
          998.331 998.331 998.328 998.328 998.326 998.326 998.323 998.323 998.32 998.32 998.317 998.317
          998.314 998.314 998.31 998.31 998.308 998.308 998.359 998.356 998.354 998.352 998.35 998.348
          998.345 998.343 998.341 998.339 998.336 998.334 998.331 998.328 998.326 998.323 998.32 998.317
          998.314 998.31 998.308 998.359 998.356 998.354 998.352 998.35 998.348 998.345 998.343 998.341
          998.339 998.336 998.334 998.331 998.328 998.326 998.323 998.32 998.317 998.314 998.31 998.308
          998.359 998.356 998.354 998.352 998.35 998.348 998.345 998.343 998.341 998.339 998.336 998.334
          998.331 998.328 998.326 998.323 998.32 998.317 998.314 998.31 998.308 998.359 998.356 998.354
          998.352 998.35 998.348 998.345 998.343 998.341 998.339 998.336 998.334 998.331 998.328 998.326
          998.323 998.32 998.317 998.314 998.31 998.308 998.359 998.356 998.354 998.352 998.35 998.348
          998.345 998.343 998.341 998.339 998.336 998.334 998.331 998.328 998.326 998.323 998.32 998.317
          998.314 998.31 998.308 998.359 998.356 998.354 998.352 998.35 998.348 998.345 998.343 998.341
          998.339 998.336 998.334 998.331 998.328 998.326 998.323 998.32 998.317 998.314 998.31 998.308
          998.359 998.356 998.354 998.352 998.35 998.348 998.345 998.343 998.341 998.339 998.336 998.334
          998.331 998.328 998.326 998.323 998.32 998.317 998.314 998.31 998.308 998.359 998.356 998.354
          998.352 998.35 998.348 998.345 998.343 998.341 998.339 998.336 998.334 998.331 998.328 998.326
          998.323 998.32 998.317 998.314 998.31 998.308 998.359 998.356 998.354 998.352 998.35 998.348
          998.345 998.343 998.341 998.339 998.336 998.334 998.331 998.328 998.326 998.323 998.32 998.317
          998.314 998.31 998.308 998.359 998.356 998.354 998.352 998.35 998.348 998.345 998.343 998.341
          998.339 998.336 998.334 998.331 998.328 998.326 998.323 998.32 998.317 998.314 998.31 998.308
          998.359 998.356 998.354 998.352 998.35 998.348 998.345 998.343 998.341 998.339 998.336 998.334
          998.331 998.328 998.326 998.323 998.32 998.317 998.314 998.31 998.308 998.359 998.356 998.354
          998.352 998.35 998.348 998.345 998.343 998.341 998.339 998.336 998.334 998.331 998.328 998.326
          998.323 998.32 998.317 998.314 998.31 998.308 998.359 998.356 998.354 998.352 998.35 998.348
          998.345 998.343 998.341 998.339 998.336 998.334 998.331 998.328 998.326 998.323 998.32 998.317
          998.314 998.31 998.308 998.359 998.356 998.354 998.352 998.35 998.348 998.345 998.343 998.341
          998.339 998.336 998.334 998.331 998.328 998.326 998.323 998.32 998.317 998.314 998.31 998.308
          998.359 998.356 998.354 998.352 998.35 998.348 998.345 998.343 998.341 998.339 998.336 998.334
          998.331 998.328 998.326 998.323 998.32 998.317 998.314 998.31 998.308 998.359 998.356 998.354
          998.352 998.35 998.348 998.345 998.343 998.341 998.339 998.336 998.334 998.331 998.328 998.326
          998.323 998.32 998.317 998.314 998.31 998.308 998.359 998.356 998.354 998.352 998.35 998.348
          998.345 998.343 998.341 998.339 998.336 998.334 998.331 998.328 998.326 998.323 998.32 998.317
          998.314 998.31 998.308 998.359 998.356 998.354 998.352 998.35 998.348 998.345 998.343 998.341
          998.339 998.336 998.334 998.331 998.328 998.326 998.323 998.32 998.317 998.314 998.31 998.308
          998.359 998.356 998.354 998.352 998.35 998.348 998.345 998.343 998.341 998.339 998.336 998.334
          998.331 998.328 998.326 998.323 998.32 998.317 998.314 998.31 998.308
        </DataArray>
        <DataArray type="Float32" Name="saturation_l" NumberOfComponents="1" format="ascii">
          1 1 1 1 1 1 1 1 1 1 1 1
          1 1 1 1 1 1 1 1 1 1 1 1
          1 1 1 1 1 1 1 1 1 1 1 1
          1 1 1 1 1 1 1 1 1 1 1 1
          1 1 1 1 1 1 1 1 1 1 1 1
          1 1 1 1 1 1 1 1 1 1 1 1
          1 1 1 1 1 1 1 1 1 1 1 1
          1 1 1 1 1 1 1 1 1 1 1 1
          1 1 1 1 1 1 1 1 1 1 1 1
          1 1 1 1 1 1 1 1 1 1 1 1
          1 1 1 1 1 1 1 1 1 1 1 1
          1 1 1 1 1 1 1 1 1 1 1 1
          1 1 1 1 1 1 1 1 1 1 1 1
          1 1 1 1 1 1 1 1 1 1 1 1
          1 1 1 1 1 1 1 1 1 1 1 1
          1 1 1 1 1 1 1 1 1 1 1 1
          1 1 1 1 1 1 1 1 1 1 1 1
          1 1 1 1 1 1 1 1 1 1 1 1
          1 1 1 1 1 1 1 1 1 1 1 1
          1 1 1 1 1 1 1 1 1 1 1 1
          1 1 1 1 1 1 1 1 1 1 1 1
          1 1 1 1 1 1 1 1 1 1 1 1
          1 1 1 1 1 1 1 1 1 1 1 1
          1 1 1 1 1 1 1 1 1 1 1 1
          1 1 1 1 1 1 1 1 1 1 1 1
          1 1 1 1 1 1 1 1 1 1 1 1
          1 1 1 1 1 1 1 1 1 1 1 1
          1 1 1 1 1 1 1 1 1 1 1 1
          1 1 1 1 1 1 1 1 1 1 1 1
          1 1 1 1 1 1 1 1 1 1 1 1
          1 1 1 1 1 1 1 1 1 1 1 1
          1 1 1 1 1 1 1 1 1 1 1 1
          1 1 1 1 1 1 1 1 1 1 1 1
          1 1 1 1 1 1 1 1 1 1 1 1
          1 1 1 1 1 1 1 1 1 1 1 1
          1 1 1 1 1 1 1 1 1 1 1 1
          1 1 1 1 1 1 1 1 1
        </DataArray>
        <DataArray type="Float32" Name="relativePerm_l" NumberOfComponents="1" format="ascii">
          1 1 1 1 1 1 1 1 1 1 1 1
          1 1 1 1 1 1 1 1 1 1 1 1
          1 1 1 1 1 1 1 1 1 1 1 1
          1 1 1 1 1 1 1 1 1 1 1 1
          1 1 1 1 1 1 1 1 1 1 1 1
          1 1 1 1 1 1 1 1 1 1 1 1
          1 1 1 1 1 1 1 1 1 1 1 1
          1 1 1 1 1 1 1 1 1 1 1 1
          1 1 1 1 1 1 1 1 1 1 1 1
          1 1 1 1 1 1 1 1 1 1 1 1
          1 1 1 1 1 1 1 1 1 1 1 1
          1 1 1 1 1 1 1 1 1 1 1 1
          1 1 1 1 1 1 1 1 1 1 1 1
          1 1 1 1 1 1 1 1 1 1 1 1
          1 1 1 1 1 1 1 1 1 1 1 1
          1 1 1 1 1 1 1 1 1 1 1 1
          1 1 1 1 1 1 1 1 1 1 1 1
          1 1 1 1 1 1 1 1 1 1 1 1
          1 1 1 1 1 1 1 1 1 1 1 1
          1 1 1 1 1 1 1 1 1 1 1 1
          1 1 1 1 1 1 1 1 1 1 1 1
          1 1 1 1 1 1 1 1 1 1 1 1
          1 1 1 1 1 1 1 1 1 1 1 1
          1 1 1 1 1 1 1 1 1 1 1 1
          1 1 1 1 1 1 1 1 1 1 1 1
          1 1 1 1 1 1 1 1 1 1 1 1
          1 1 1 1 1 1 1 1 1 1 1 1
          1 1 1 1 1 1 1 1 1 1 1 1
          1 1 1 1 1 1 1 1 1 1 1 1
          1 1 1 1 1 1 1 1 1 1 1 1
          1 1 1 1 1 1 1 1 1 1 1 1
          1 1 1 1 1 1 1 1 1 1 1 1
          1 1 1 1 1 1 1 1 1 1 1 1
          1 1 1 1 1 1 1 1 1 1 1 1
          1 1 1 1 1 1 1 1 1 1 1 1
          1 1 1 1 1 1 1 1 1 1 1 1
          1 1 1 1 1 1 1 1 1
        </DataArray>
        <DataArray type="Float32" Name="porosity" NumberOfComponents="1" format="ascii">
          0.4 0.4 0.4 0.4 0.4 0.4 0.4 0.4 0.4 0.4 0.4 0.4
          0.4 0.4 0.4 0.4 0.4 0.4 0.4 0.4 0.4 0.4 0.4 0.4
          0.4 0.4 0.4 0.4 0.4 0.4 0.4 0.4 0.4 0.4 0.4 0.4
          0.4 0.4 0.4 0.4 0.4 0.4 0.4 0.4 0.4 0.4 0.4 0.4
          0.4 0.4 0.4 0.4 0.4 0.4 0.4 0.4 0.4 0.4 0.4 0.4
          0.4 0.4 0.4 0.4 0.4 0.4 0.4 0.4 0.4 0.4 0.4 0.4
          0.4 0.4 0.4 0.4 0.4 0.4 0.4 0.4 0.4 0.4 0.4 0.4
          0.4 0.4 0.4 0.4 0.4 0.4 0.4 0.4 0.4 0.4 0.4 0.4
          0.4 0.4 0.4 0.4 0.4 0.4 0.4 0.4 0.4 0.4 0.4 0.4
          0.4 0.4 0.4 0.4 0.4 0.4 0.4 0.4 0.4 0.4 0.4 0.4
          0.4 0.4 0.4 0.4 0.4 0.4 0.4 0.4 0.4 0.4 0.4 0.4
          0.4 0.4 0.4 0.4 0.4 0.4 0.4 0.4 0.4 0.4 0.4 0.4
          0.4 0.4 0.4 0.4 0.4 0.4 0.4 0.4 0.4 0.4 0.4 0.4
          0.4 0.4 0.4 0.4 0.4 0.4 0.4 0.4 0.4 0.4 0.4 0.4
          0.4 0.4 0.4 0.4 0.4 0.4 0.4 0.4 0.4 0.4 0.4 0.4
          0.4 0.4 0.4 0.4 0.4 0.4 0.4 0.4 0.4 0.4 0.4 0.4
          0.4 0.4 0.4 0.4 0.4 0.4 0.4 0.4 0.4 0.4 0.4 0.4
          0.4 0.4 0.4 0.4 0.4 0.4 0.4 0.4 0.4 0.4 0.4 0.4
          0.4 0.4 0.4 0.4 0.4 0.4 0.4 0.4 0.4 0.4 0.4 0.4
          0.4 0.4 0.4 0.4 0.4 0.4 0.4 0.4 0.4 0.4 0.4 0.4
          0.4 0.4 0.4 0.4 0.4 0.4 0.4 0.4 0.4 0.4 0.4 0.4
          0.4 0.4 0.4 0.4 0.4 0.4 0.4 0.4 0.4 0.4 0.4 0.4
          0.4 0.4 0.4 0.4 0.4 0.4 0.4 0.4 0.4 0.4 0.4 0.4
          0.4 0.4 0.4 0.4 0.4 0.4 0.4 0.4 0.4 0.4 0.4 0.4
          0.4 0.4 0.4 0.4 0.4 0.4 0.4 0.4 0.4 0.4 0.4 0.4
          0.4 0.4 0.4 0.4 0.4 0.4 0.4 0.4 0.4 0.4 0.4 0.4
          0.4 0.4 0.4 0.4 0.4 0.4 0.4 0.4 0.4 0.4 0.4 0.4
          0.4 0.4 0.4 0.4 0.4 0.4 0.4 0.4 0.4 0.4 0.4 0.4
          0.4 0.4 0.4 0.4 0.4 0.4 0.4 0.4 0.4 0.4 0.4 0.4
          0.4 0.4 0.4 0.4 0.4 0.4 0.4 0.4 0.4 0.4 0.4 0.4
          0.4 0.4 0.4 0.4 0.4 0.4 0.4 0.4 0.4 0.4 0.4 0.4
          0.4 0.4 0.4 0.4 0.4 0.4 0.4 0.4 0.4 0.4 0.4 0.4
          0.4 0.4 0.4 0.4 0.4 0.4 0.4 0.4 0.4 0.4 0.4 0.4
          0.4 0.4 0.4 0.4 0.4 0.4 0.4 0.4 0.4 0.4 0.4 0.4
          0.4 0.4 0.4 0.4 0.4 0.4 0.4 0.4 0.4 0.4 0.4 0.4
          0.4 0.4 0.4 0.4 0.4 0.4 0.4 0.4 0.4 0.4 0.4 0.4
          0.4 0.4 0.4 0.4 0.4 0.4 0.4 0.4 0.4
        </DataArray>
        <DataArray type="Float32" Name="temperature" NumberOfComponents="1" format="ascii">
          293.15 293.15 293.15 293.15 293.15 293.15 293.15 293.15 293.15 293.15 293.15 293.15
          293.15 293.15 293.15 293.15 293.15 293.15 293.15 293.15 293.15 293.15 293.15 293.15
          293.15 293.15 293.15 293.15 293.15 293.15 293.15 293.15 293.15 293.15 293.15 293.15
          293.15 293.15 293.15 293.15 293.15 293.15 293.15 293.15 293.15 293.15 293.15 293.15
          293.15 293.15 293.15 293.15 293.15 293.15 293.15 293.15 293.15 293.15 293.15 293.15
          293.15 293.15 293.15 293.15 293.15 293.15 293.15 293.15 293.15 293.15 293.15 293.15
          293.15 293.15 293.15 293.15 293.15 293.15 293.15 293.15 293.15 293.15 293.15 293.15
          293.15 293.15 293.15 293.15 293.15 293.15 293.15 293.15 293.15 293.15 293.15 293.15
          293.15 293.15 293.15 293.15 293.15 293.15 293.15 293.15 293.15 293.15 293.15 293.15
          293.15 293.15 293.15 293.15 293.15 293.15 293.15 293.15 293.15 293.15 293.15 293.15
          293.15 293.15 293.15 293.15 293.15 293.15 293.15 293.15 293.15 293.15 293.15 293.15
          293.15 293.15 293.15 293.15 293.15 293.15 293.15 293.15 293.15 293.15 293.15 293.15
          293.15 293.15 293.15 293.15 293.15 293.15 293.15 293.15 293.15 293.15 293.15 293.15
          293.15 293.15 293.15 293.15 293.15 293.15 293.15 293.15 293.15 293.15 293.15 293.15
          293.15 293.15 293.15 293.15 293.15 293.15 293.15 293.15 293.15 293.15 293.15 293.15
          293.15 293.15 293.15 293.15 293.15 293.15 293.15 293.15 293.15 293.15 293.15 293.15
          293.15 293.15 293.15 293.15 293.15 293.15 293.15 293.15 293.15 293.15 293.15 293.15
          293.15 293.15 293.15 293.15 293.15 293.15 293.15 293.15 293.15 293.15 293.15 293.15
          293.15 293.15 293.15 293.15 293.15 293.15 293.15 293.15 293.15 293.15 293.15 293.15
          293.15 293.15 293.15 293.15 293.15 293.15 293.15 293.15 293.15 293.15 293.15 293.15
          293.15 293.15 293.15 293.15 293.15 293.15 293.15 293.15 293.15 293.15 293.15 293.15
          293.15 293.15 293.15 293.15 293.15 293.15 293.15 293.15 293.15 293.15 293.15 293.15
          293.15 293.15 293.15 293.15 293.15 293.15 293.15 293.15 293.15 293.15 293.15 293.15
          293.15 293.15 293.15 293.15 293.15 293.15 293.15 293.15 293.15 293.15 293.15 293.15
          293.15 293.15 293.15 293.15 293.15 293.15 293.15 293.15 293.15 293.15 293.15 293.15
          293.15 293.15 293.15 293.15 293.15 293.15 293.15 293.15 293.15 293.15 293.15 293.15
          293.15 293.15 293.15 293.15 293.15 293.15 293.15 293.15 293.15 293.15 293.15 293.15
          293.15 293.15 293.15 293.15 293.15 293.15 293.15 293.15 293.15 293.15 293.15 293.15
          293.15 293.15 293.15 293.15 293.15 293.15 293.15 293.15 293.15 293.15 293.15 293.15
          293.15 293.15 293.15 293.15 293.15 293.15 293.15 293.15 293.15 293.15 293.15 293.15
          293.15 293.15 293.15 293.15 293.15 293.15 293.15 293.15 293.15 293.15 293.15 293.15
          293.15 293.15 293.15 293.15 293.15 293.15 293.15 293.15 293.15 293.15 293.15 293.15
          293.15 293.15 293.15 293.15 293.15 293.15 293.15 293.15 293.15 293.15 293.15 293.15
          293.15 293.15 293.15 293.15 293.15 293.15 293.15 293.15 293.15 293.15 293.15 293.15
          293.15 293.15 293.15 293.15 293.15 293.15 293.15 293.15 293.15 293.15 293.15 293.15
          293.15 293.15 293.15 293.15 293.15 293.15 293.15 293.15 293.15 293.15 293.15 293.15
          293.15 293.15 293.15 293.15 293.15 293.15 293.15 293.15 293.15
        </DataArray>
        <DataArray type="Float32" Name="moleFrac_l^H2O" NumberOfComponents="1" format="ascii">
          0.9998 0.9998 0.9998 0.9998 0.9998 0.9998 0.9998 0.9998 0.9998 0.9998 0.9998 0.9998
          0.9998 0.9998 0.9998 0.9998 0.999801 0.999801 0.999801 0.999801 0.999801 0.999801 0.999802 0.999802
          0.999802 0.999802 0.999803 0.999803 0.999804 0.999804 0.999805 0.999805 0.999807 0.999807 0.999808 0.999808
          0.99981 0.99981 0.999812 0.999812 0.999813 0.999813 0.9998 0.9998 0.9998 0.9998 0.9998 0.9998
          0.9998 0.9998 0.999801 0.999801 0.999801 0.999802 0.999802 0.999803 0.999804 0.999805 0.999807 0.999808
          0.99981 0.999812 0.999813 0.9998 0.9998 0.9998 0.9998 0.9998 0.9998 0.9998 0.9998 0.999801
          0.999801 0.999801 0.999802 0.999802 0.999803 0.999804 0.999805 0.999807 0.999808 0.99981 0.999812 0.999813
          0.9998 0.9998 0.9998 0.9998 0.9998 0.9998 0.9998 0.9998 0.999801 0.999801 0.999801 0.999802
          0.999802 0.999803 0.999804 0.999805 0.999807 0.999808 0.99981 0.999812 0.999813 0.9998 0.9998 0.9998
          0.9998 0.9998 0.9998 0.9998 0.9998 0.999801 0.999801 0.999801 0.999802 0.999802 0.999803 0.999804
          0.999805 0.999807 0.999808 0.99981 0.999812 0.999813 0.9998 0.9998 0.9998 0.9998 0.9998 0.9998
          0.9998 0.9998 0.999801 0.999801 0.999801 0.999802 0.999802 0.999803 0.999804 0.999805 0.999807 0.999808
          0.99981 0.999812 0.999813 0.9998 0.9998 0.9998 0.9998 0.9998 0.9998 0.9998 0.9998 0.999801
          0.999801 0.999801 0.999802 0.999802 0.999803 0.999804 0.999805 0.999807 0.999808 0.99981 0.999812 0.999813
          0.9998 0.9998 0.9998 0.9998 0.9998 0.9998 0.9998 0.9998 0.999801 0.999801 0.999801 0.999802
          0.999802 0.999803 0.999804 0.999805 0.999807 0.999808 0.99981 0.999812 0.999813 0.9998 0.9998 0.9998
          0.9998 0.9998 0.9998 0.9998 0.9998 0.999801 0.999801 0.999801 0.999802 0.999802 0.999803 0.999804
          0.999805 0.999807 0.999808 0.99981 0.999812 0.999813 0.9998 0.9998 0.9998 0.9998 0.9998 0.9998
          0.9998 0.9998 0.999801 0.999801 0.999801 0.999802 0.999802 0.999803 0.999804 0.999805 0.999807 0.999808
          0.99981 0.999812 0.999813 0.9998 0.9998 0.9998 0.9998 0.9998 0.9998 0.9998 0.9998 0.999801
          0.999801 0.999801 0.999802 0.999802 0.999803 0.999804 0.999805 0.999807 0.999808 0.99981 0.999812 0.999813
          0.9998 0.9998 0.9998 0.9998 0.9998 0.9998 0.9998 0.9998 0.999801 0.999801 0.999801 0.999802
          0.999802 0.999803 0.999804 0.999805 0.999807 0.999808 0.99981 0.999812 0.999813 0.9998 0.9998 0.9998
          0.9998 0.9998 0.9998 0.9998 0.9998 0.999801 0.999801 0.999801 0.999802 0.999802 0.999803 0.999804
          0.999805 0.999807 0.999808 0.99981 0.999812 0.999813 0.9998 0.9998 0.9998 0.9998 0.9998 0.9998
          0.9998 0.9998 0.999801 0.999801 0.999801 0.999802 0.999802 0.999803 0.999804 0.999805 0.999807 0.999808
          0.99981 0.999812 0.999813 0.9998 0.9998 0.9998 0.9998 0.9998 0.9998 0.9998 0.9998 0.999801
          0.999801 0.999801 0.999802 0.999802 0.999803 0.999804 0.999805 0.999807 0.999808 0.99981 0.999812 0.999813
          0.9998 0.9998 0.9998 0.9998 0.9998 0.9998 0.9998 0.9998 0.999801 0.999801 0.999801 0.999802
          0.999802 0.999803 0.999804 0.999805 0.999807 0.999808 0.99981 0.999812 0.999813 0.9998 0.9998 0.9998
          0.9998 0.9998 0.9998 0.9998 0.9998 0.999801 0.999801 0.999801 0.999802 0.999802 0.999803 0.999804
          0.999805 0.999807 0.999808 0.99981 0.999812 0.999813 0.9998 0.9998 0.9998 0.9998 0.9998 0.9998
          0.9998 0.9998 0.999801 0.999801 0.999801 0.999802 0.999802 0.999803 0.999804 0.999805 0.999807 0.999808
          0.99981 0.999812 0.999813 0.9998 0.9998 0.9998 0.9998 0.9998 0.9998 0.9998 0.9998 0.999801
          0.999801 0.999801 0.999802 0.999802 0.999803 0.999804 0.999805 0.999807 0.999808 0.99981 0.999812 0.999813
          0.9998 0.9998 0.9998 0.9998 0.9998 0.9998 0.9998 0.9998 0.999801 0.999801 0.999801 0.999802
          0.999802 0.999803 0.999804 0.999805 0.999807 0.999808 0.99981 0.999812 0.999813
        </DataArray>
        <DataArray type="Float32" Name="moleFrac_l^N2" NumberOfComponents="1" format="ascii">
          0.0002 0.000199999 0.0002 0.000199999 0.000199997 0.000199997 0.000199988 0.000199988 0.000199967 0.000199967 0.000199924 0.000199924
          0.000199846 0.000199846 0.000199718 0.000199718 0.000199523 0.000199523 0.000199242 0.000199242 0.000198855 0.000198855 0.000198344 0.000198344
          0.000197688 0.000197688 0.000196873 0.000196873 0.000195883 0.000195883 0.000194707 0.000194707 0.000193333 0.000193333 0.000191757 0.000191757
          0.000189973 0.000189973 0.000187982 0.000187982 0.000186934 0.000186934 0.0002 0.000199999 0.000199997 0.000199988 0.000199967 0.000199924
          0.000199846 0.000199718 0.000199523 0.000199242 0.000198855 0.000198344 0.000197688 0.000196873 0.000195883 0.000194707 0.000193333 0.000191757
          0.000189973 0.000187982 0.000186934 0.0002 0.000199999 0.000199997 0.000199988 0.000199967 0.000199924 0.000199846 0.000199718 0.000199523
          0.000199242 0.000198855 0.000198344 0.000197688 0.000196873 0.000195883 0.000194707 0.000193333 0.000191757 0.000189973 0.000187982 0.000186934
          0.0002 0.000199999 0.000199997 0.000199988 0.000199967 0.000199924 0.000199846 0.000199718 0.000199523 0.000199242 0.000198855 0.000198344
          0.000197688 0.000196873 0.000195883 0.000194707 0.000193333 0.000191757 0.000189973 0.000187982 0.000186934 0.0002 0.000199999 0.000199997
          0.000199988 0.000199967 0.000199924 0.000199846 0.000199718 0.000199523 0.000199242 0.000198855 0.000198344 0.000197688 0.000196873 0.000195883
          0.000194707 0.000193333 0.000191757 0.000189973 0.000187982 0.000186934 0.0002 0.000199999 0.000199997 0.000199988 0.000199967 0.000199924
          0.000199846 0.000199718 0.000199523 0.000199242 0.000198855 0.000198344 0.000197688 0.000196873 0.000195883 0.000194707 0.000193333 0.000191757
          0.000189973 0.000187982 0.000186934 0.0002 0.000199999 0.000199997 0.000199988 0.000199967 0.000199924 0.000199846 0.000199718 0.000199523
          0.000199242 0.000198855 0.000198344 0.000197688 0.000196873 0.000195883 0.000194707 0.000193333 0.000191757 0.000189973 0.000187982 0.000186934
          0.0002 0.000199999 0.000199997 0.000199988 0.000199967 0.000199924 0.000199846 0.000199718 0.000199523 0.000199242 0.000198855 0.000198344
          0.000197688 0.000196873 0.000195883 0.000194707 0.000193333 0.000191757 0.000189973 0.000187982 0.000186934 0.0002 0.000199999 0.000199997
          0.000199988 0.000199967 0.000199924 0.000199846 0.000199718 0.000199523 0.000199242 0.000198855 0.000198344 0.000197688 0.000196873 0.000195883
          0.000194707 0.000193333 0.000191757 0.000189973 0.000187982 0.000186934 0.0002 0.000199999 0.000199997 0.000199988 0.000199967 0.000199924
          0.000199846 0.000199718 0.000199523 0.000199242 0.000198855 0.000198344 0.000197688 0.000196873 0.000195883 0.000194707 0.000193333 0.000191757
          0.000189973 0.000187982 0.000186934 0.0002 0.000199999 0.000199997 0.000199988 0.000199967 0.000199924 0.000199846 0.000199718 0.000199523
          0.000199242 0.000198855 0.000198344 0.000197688 0.000196873 0.000195883 0.000194707 0.000193333 0.000191757 0.000189973 0.000187982 0.000186934
          0.0002 0.000199999 0.000199997 0.000199988 0.000199967 0.000199924 0.000199846 0.000199718 0.000199523 0.000199242 0.000198855 0.000198344
          0.000197688 0.000196873 0.000195883 0.000194707 0.000193333 0.000191757 0.000189973 0.000187982 0.000186934 0.0002 0.000199999 0.000199997
          0.000199988 0.000199967 0.000199924 0.000199846 0.000199718 0.000199523 0.000199242 0.000198855 0.000198344 0.000197688 0.000196873 0.000195883
          0.000194707 0.000193333 0.000191757 0.000189973 0.000187982 0.000186934 0.0002 0.000199999 0.000199997 0.000199988 0.000199967 0.000199924
          0.000199846 0.000199718 0.000199523 0.000199242 0.000198855 0.000198344 0.000197688 0.000196873 0.000195883 0.000194707 0.000193333 0.000191757
          0.000189973 0.000187982 0.000186934 0.0002 0.000199999 0.000199997 0.000199988 0.000199967 0.000199924 0.000199846 0.000199718 0.000199523
          0.000199242 0.000198855 0.000198344 0.000197688 0.000196873 0.000195883 0.000194707 0.000193333 0.000191757 0.000189973 0.000187982 0.000186934
          0.0002 0.000199999 0.000199997 0.000199988 0.000199967 0.000199924 0.000199846 0.000199718 0.000199523 0.000199242 0.000198855 0.000198344
          0.000197688 0.000196873 0.000195883 0.000194707 0.000193333 0.000191757 0.000189973 0.000187982 0.000186934 0.0002 0.000199999 0.000199997
          0.000199988 0.000199967 0.000199924 0.000199846 0.000199718 0.000199523 0.000199242 0.000198855 0.000198344 0.000197688 0.000196873 0.000195883
          0.000194707 0.000193333 0.000191757 0.000189973 0.000187982 0.000186934 0.0002 0.000199999 0.000199997 0.000199988 0.000199967 0.000199924
          0.000199846 0.000199718 0.000199523 0.000199242 0.000198855 0.000198344 0.000197688 0.000196873 0.000195883 0.000194707 0.000193333 0.000191757
          0.000189973 0.000187982 0.000186934 0.0002 0.000199999 0.000199997 0.000199988 0.000199967 0.000199924 0.000199846 0.000199718 0.000199523
          0.000199242 0.000198855 0.000198344 0.000197688 0.000196873 0.000195883 0.000194707 0.000193333 0.000191757 0.000189973 0.000187982 0.000186934
          0.0002 0.000199999 0.000199997 0.000199988 0.000199967 0.000199924 0.000199846 0.000199718 0.000199523 0.000199242 0.000198855 0.000198344
          0.000197688 0.000196873 0.000195883 0.000194707 0.000193333 0.000191757 0.000189973 0.000187982 0.000186934
        </DataArray>
        <DataArray type="Float32" Name="massFrac_l^H2O" NumberOfComponents="1" format="ascii">
          0.999689 0.999689 0.999689 0.999689 0.999689 0.999689 0.999689 0.999689 0.999689 0.999689 0.999689 0.999689
          0.999689 0.999689 0.999689 0.999689 0.99969 0.99969 0.99969 0.99969 0.999691 0.999691 0.999692 0.999692
          0.999693 0.999693 0.999694 0.999694 0.999695 0.999695 0.999697 0.999697 0.999699 0.999699 0.999702 0.999702
          0.999705 0.999705 0.999708 0.999708 0.999709 0.999709 0.999689 0.999689 0.999689 0.999689 0.999689 0.999689
          0.999689 0.999689 0.99969 0.99969 0.999691 0.999692 0.999693 0.999694 0.999695 0.999697 0.999699 0.999702
          0.999705 0.999708 0.999709 0.999689 0.999689 0.999689 0.999689 0.999689 0.999689 0.999689 0.999689 0.99969
          0.99969 0.999691 0.999692 0.999693 0.999694 0.999695 0.999697 0.999699 0.999702 0.999705 0.999708 0.999709
          0.999689 0.999689 0.999689 0.999689 0.999689 0.999689 0.999689 0.999689 0.99969 0.99969 0.999691 0.999692
          0.999693 0.999694 0.999695 0.999697 0.999699 0.999702 0.999705 0.999708 0.999709 0.999689 0.999689 0.999689
          0.999689 0.999689 0.999689 0.999689 0.999689 0.99969 0.99969 0.999691 0.999692 0.999693 0.999694 0.999695
          0.999697 0.999699 0.999702 0.999705 0.999708 0.999709 0.999689 0.999689 0.999689 0.999689 0.999689 0.999689
          0.999689 0.999689 0.99969 0.99969 0.999691 0.999692 0.999693 0.999694 0.999695 0.999697 0.999699 0.999702
          0.999705 0.999708 0.999709 0.999689 0.999689 0.999689 0.999689 0.999689 0.999689 0.999689 0.999689 0.99969
          0.99969 0.999691 0.999692 0.999693 0.999694 0.999695 0.999697 0.999699 0.999702 0.999705 0.999708 0.999709
          0.999689 0.999689 0.999689 0.999689 0.999689 0.999689 0.999689 0.999689 0.99969 0.99969 0.999691 0.999692
          0.999693 0.999694 0.999695 0.999697 0.999699 0.999702 0.999705 0.999708 0.999709 0.999689 0.999689 0.999689
          0.999689 0.999689 0.999689 0.999689 0.999689 0.99969 0.99969 0.999691 0.999692 0.999693 0.999694 0.999695
          0.999697 0.999699 0.999702 0.999705 0.999708 0.999709 0.999689 0.999689 0.999689 0.999689 0.999689 0.999689
          0.999689 0.999689 0.99969 0.99969 0.999691 0.999692 0.999693 0.999694 0.999695 0.999697 0.999699 0.999702
          0.999705 0.999708 0.999709 0.999689 0.999689 0.999689 0.999689 0.999689 0.999689 0.999689 0.999689 0.99969
          0.99969 0.999691 0.999692 0.999693 0.999694 0.999695 0.999697 0.999699 0.999702 0.999705 0.999708 0.999709
          0.999689 0.999689 0.999689 0.999689 0.999689 0.999689 0.999689 0.999689 0.99969 0.99969 0.999691 0.999692
          0.999693 0.999694 0.999695 0.999697 0.999699 0.999702 0.999705 0.999708 0.999709 0.999689 0.999689 0.999689
          0.999689 0.999689 0.999689 0.999689 0.999689 0.99969 0.99969 0.999691 0.999692 0.999693 0.999694 0.999695
          0.999697 0.999699 0.999702 0.999705 0.999708 0.999709 0.999689 0.999689 0.999689 0.999689 0.999689 0.999689
          0.999689 0.999689 0.99969 0.99969 0.999691 0.999692 0.999693 0.999694 0.999695 0.999697 0.999699 0.999702
          0.999705 0.999708 0.999709 0.999689 0.999689 0.999689 0.999689 0.999689 0.999689 0.999689 0.999689 0.99969
          0.99969 0.999691 0.999692 0.999693 0.999694 0.999695 0.999697 0.999699 0.999702 0.999705 0.999708 0.999709
          0.999689 0.999689 0.999689 0.999689 0.999689 0.999689 0.999689 0.999689 0.99969 0.99969 0.999691 0.999692
          0.999693 0.999694 0.999695 0.999697 0.999699 0.999702 0.999705 0.999708 0.999709 0.999689 0.999689 0.999689
          0.999689 0.999689 0.999689 0.999689 0.999689 0.99969 0.99969 0.999691 0.999692 0.999693 0.999694 0.999695
          0.999697 0.999699 0.999702 0.999705 0.999708 0.999709 0.999689 0.999689 0.999689 0.999689 0.999689 0.999689
          0.999689 0.999689 0.99969 0.99969 0.999691 0.999692 0.999693 0.999694 0.999695 0.999697 0.999699 0.999702