<?xml version="1.0"?>
<VTKFile type="PolyData" version="0.1" byte_order="LittleEndian">
  <PolyData>
    <Piece NumberOfLines="250" NumberOfPoints="251">
      <PointData Scalars="pressure_w">
        <DataArray type="Float32" Name="pressure_w" NumberOfComponents="1" format="ascii">
          262627 262602 262548 262472 262382 262278 262164 262039 261905 261762 261612 261453
          261288 261115 260935 260749 260557 260358 260153 259943 259726 259504 259277 259044
          258806 258562 258313 258060 257801 257537 257268 256995 256716 256433 256146 255853
          255556 255255 254948 254638 254323 254004 253680 253352 253020 252683 252342 251997
          251648 251294 250937 250575 250209 249839 249465 249087 248705 248319 247929 247535
          247138 246736 246330 245921 245507 245090 244668 244243 243814 243382 242945 242505
          242061 241613 241161 240706 240246 239783 239317 238846 238372 237894 237413 236927
          236438 235946 235449 234949 234445 233938 233427 232912 232394 231872 231346 230817
          230284 229747 229207 228663 228115 227564 227009 226450 225888 225322 224753 224180
          223603 223023 222439 221851 221260 220665 220066 219464 218858 218249 217635 217019
          216398 215774 215146 214515 213880 213241 212598 211952 211302 210649 209991 209330
          208666 207997 207325 206649 205970 205287 204600 203909 203214 202516 201814 201108
          200398 199685 198968 198246 197522 196793 196060 195324 194584 193839 193091 192339
          191584 190824 190060 189293 188521 187746 186966 186183 185395 184604 183808 183009
          182205 181397 180585 179770 178950 178125 177297 176465 175628 174787 173942 173093
          172239 171381 170519 169653 168782 167907 167027 166143 165255 164362 163465 162563
          161656 160746 159830 158910 157985 157056 156122 155183 154240 153292 152339 151381
          150418 149450 148478 147500 146518 145530 144537 143540 142537 141529 140515 139496
          138472 137443 136408 135368 134322 133271 132214 131151 130083 129009 127929 126843
          125751 124654 123550 122440 121323 120201 119072 117937 116795 115646 114491 113329
          112160 110985 109802 108612 107415 106211 104999 103779 102553 101326 100167
        </DataArray>
        <DataArray type="Float32" Name="pressure_n" NumberOfComponents="1" format="ascii">
          265134 265047 264948 264840 264722 264597 264463 264321 264172 264016 263853 263684
          263508 263326 263138 262944 262744 262538 262327 262110 261888 261660 261427 261189
          260946 260698 260445 260187 259924 259656 259384 259106 258824 258538 258247 257951
          257651 257347 257038 256724 256407 256085 255758 255428 255093 254754 254411 254063
          253712 253356 252996 252633 252265 251893 251517 251137 250754 250366 249974 249578
          249179 248775 248368 247957 247542 247123 246700 246274 245843 245409 244971 244530
          244084 243635 243182 242725 242265 241801 241333 240861 240386 239907 239424 238938
          238448 237954 237456 236955 236451 235942 235430 234914 234395 233872 233345 232815
          232281 231744 231203 230658 230109 229557 229002 228442 227879 227313 226743 226169
          225591 225010 224426 223837 223245 222650 222050 221448 220841 220231 219617 219000
          218379 217754 217126 216494 215858 215219 214576 213929 213278 212624 211967 211305
          210640 209971 209299 208622 207942 207259 206571 205880 205185 204486 203784 203078
          202368 201654 200936 200215 199490 198761 198028 197291 196551 195806 195058 194306
          193550 192790 192026 191258 190486 189710 188931 188147 187359 186568 185772 184972
          184168 183361 182549 181733 180913 180088 179260 178427 177591 176750 175905 175055
          174202 173344 172482 171615 170744 169869 168990 168106 167217 166324 165427 164525
          163619 162708 161793 160873 159949 159019 158085 157147 156204 155255 154303 153345
          152382 151415 150443 149465 148483 147496 146503 145506 144503 143495 142482 141464
          140440 139411 138377 137337 136291 135240 134184 133122 132054 130980 129901 128815
          127724 126627 125524 124414 123298 122176 121048 119914 118772 117625 116470 115309
          114141 112966 111784 110595 109399 108195 106984 105766 104538 103290 101879
        </DataArray>
        <DataArray type="Float32" Name="density_w" NumberOfComponents="1" format="ascii">
          1000 1000 1000 1000 1000 1000 1000 1000 1000 1000 1000 1000
          1000 1000 1000 1000 1000 1000 1000 1000 1000 1000 1000 1000
          1000 1000 1000 1000 1000 1000 1000 1000 1000 1000 1000 1000
          1000 1000 1000 1000 1000 1000 1000 1000 1000 1000 1000 1000
          1000 1000 1000 1000 1000 1000 1000 1000 1000 1000 1000 1000
          1000 1000 1000 1000 1000 1000 1000 1000 1000 1000 1000 1000
          1000 1000 1000 1000 1000 1000 1000 1000 1000 1000 1000 1000
          1000 1000 1000 1000 1000 1000 1000 1000 1000 1000 1000 1000
          1000 1000 1000 1000 1000 1000 1000 1000 1000 1000 1000 1000
          1000 1000 1000 1000 1000 1000 1000 1000 1000 1000 1000 1000
          1000 1000 1000 1000 1000 1000 1000 1000 1000 1000 1000 1000
          1000 1000 1000 1000 1000 1000 1000 1000 1000 1000 1000 1000
          1000 1000 1000 1000 1000 1000 1000 1000 1000 1000 1000 1000
          1000 1000 1000 1000 1000 1000 1000 1000 1000 1000 1000 1000
          1000 1000 1000 1000 1000 1000 1000 1000 1000 1000 1000 1000
          1000 1000 1000 1000 1000 1000 1000 1000 1000 1000 1000 1000
          1000 1000 1000 1000 1000 1000 1000 1000 1000 1000 1000 1000
          1000 1000 1000 1000 1000 1000 1000 1000 1000 1000 1000 1000
          1000 1000 1000 1000 1000 1000 1000 1000 1000 1000 1000 1000
          1000 1000 1000 1000 1000 1000 1000 1000 1000 1000 1000 1000
          1000 1000 1000 1000 1000 1000 1000 1000 1000 1000 1000
        </DataArray>
        <DataArray type="Float32" Name="density_n" NumberOfComponents="1" format="ascii">
          3.08084 3.07983 3.07869 3.07743 3.07606 3.0746 3.07305 3.0714 3.06967 3.06786 3.06597 3.064
          3.06196 3.05984 3.05765 3.0554 3.05308 3.05069 3.04823 3.04571 3.04313 3.04048 3.03778 3.03501
          3.03219 3.0293 3.02636 3.02336 3.0203 3.01719 3.01403 3.0108 3.00753 3.0042 3.00082 2.99738
          2.9939 2.99036 2.98677 2.98313 2.97943 2.97569 2.9719 2.96806 2.96417 2.96023 2.95624 2.9522
          2.94812 2.94399 2.93981 2.93558 2.93131 2.92699 2.92262 2.91821 2.91375 2.90924 2.90469 2.90009
          2.89545 2.89076 2.88603 2.88125 2.87643 2.87156 2.86665 2.86169 2.85669 2.85165 2.84656 2.84142
          2.83625 2.83103 2.82576 2.82046 2.81511 2.80971 2.80428 2.7988 2.79327 2.78771 2.7821 2.77645
          2.77075 2.76501 2.75923 2.75341 2.74755 2.74164 2.73569 2.7297 2.72366 2.71759 2.71147 2.7053
          2.6991 2.69285 2.68657 2.68023 2.67386 2.66745 2.66099 2.65449 2.64795 2.64137 2.63474 2.62807
          2.62136 2.61461 2.60782 2.60098 2.5941 2.58718 2.58022 2.57321 2.56617 2.55908 2.55194 2.54477
          2.53755 2.53029 2.52299 2.51565 2.50826 2.50083 2.49336 2.48585 2.47829 2.47069 2.46304 2.45536
          2.44763 2.43986 2.43204 2.42419 2.41628 2.40834 2.40035 2.39232 2.38424 2.37613 2.36796 2.35976
          2.35151 2.34321 2.33487 2.32649 2.31806 2.30959 2.30108 2.29252 2.28391 2.27526 2.26657 2.25782
          2.24904 2.24021 2.23133 2.22241 2.21344 2.20443 2.19537 2.18626 2.17711 2.16791 2.15866 2.14937
          2.14003 2.13064 2.12121 2.11173 2.1022 2.09262 2.08299 2.07332 2.0636 2.05383 2.044 2.03414
          2.02422 2.01425 2.00423 1.99416 1.98404 1.97387 1.96365 1.95338 1.94306 1.93268 1.92226 1.91178
          1.90125 1.89067 1.88003 1.86934 1.8586 1.8478 1.83695 1.82604 1.81508 1.80406 1.79299 1.78186
          1.77068 1.75944 1.74814 1.73678 1.72537 1.71389 1.70236 1.69077 1.67912 1.66741 1.65564 1.6438
          1.63191 1.61995 1.60793 1.59585 1.5837 1.57149 1.55921 1.54687 1.53446 1.52199 1.50944 1.49683
          1.48415 1.4714 1.45858 1.44569 1.43272 1.41969 1.40658 1.39339 1.38013 1.36679 1.35338 1.33989
          1.32631 1.31266 1.29893 1.28511 1.27121 1.25722 1.24315 1.22899 1.21473 1.20023 1.18383
        </DataArray>
        <DataArray type="Float32" Name="saturation_w" NumberOfComponents="1" format="ascii">
          0.346764 0.387019 0.416698 0.440272 0.459799 0.476429 0.490875 0.503615 0.514986 0.525234 0.534544 0.54306
          0.550896 0.558144 0.564877 0.571157 0.577035 0.582555 0.587753 0.592661 0.597307 0.601713 0.605901 0.60989
          0.613694 0.617328 0.620806 0.624137 0.627334 0.630404 0.633357 0.636199 0.638938 0.64158 0.64413 0.646595
          0.648978 0.651284 0.653517 0.655682 0.657781 0.659817 0.661795 0.663716 0.665583 0.667399 0.669166 0.670885
          0.67256 0.674192 0.675782 0.677333 0.678846 0.680322 0.681763 0.68317 0.684544 0.685886 0.687199 0.688482
          0.689736 0.690963 0.692164 0.693339 0.694489 0.695615 0.696718 0.697798 0.698856 0.699893 0.700909 0.701906
          0.702882 0.70384 0.704779 0.7057 0.706603 0.70749 0.70836 0.709213 0.710051 0.710873 0.71168 0.712473
          0.713251 0.714015 0.714765 0.715502 0.716226 0.716936 0.717634 0.71832 0.718994 0.719656 0.720306 0.720945
          0.721573 0.72219 0.722796 0.723391 0.723976 0.724551 0.725116 0.725671 0.726217 0.726753 0.727279 0.727796
          0.728305 0.728804 0.729295 0.729776 0.73025 0.730715 0.731171 0.73162 0.73206 0.732492 0.732917 0.733333
          0.733742 0.734144 0.734538 0.734924 0.735303 0.735675 0.73604 0.736398 0.736748 0.737092 0.737429 0.737759
          0.738082 0.738398 0.738708 0.739011 0.739308 0.739598 0.739882 0.740159 0.74043 0.740695 0.740953 0.741206
          0.741451 0.741691 0.741925 0.742152 0.742374 0.742589 0.742798 0.743002 0.743199 0.74339 0.743576 0.743755
          0.743928 0.744096 0.744258 0.744413 0.744563 0.744707 0.744845 0.744977 0.745104 0.745224 0.745339 0.745447
          0.74555 0.745646 0.745737 0.745822 0.745901 0.745974 0.746041 0.746102 0.746156 0.746205 0.746248 0.746284
          0.746314 0.746338 0.746356 0.746368 0.746373 0.746372 0.746365 0.746351 0.74633 0.746303 0.746269 0.746229
          0.746182 0.746128 0.746067 0.746 0.745925 0.745843 0.745754 0.745658 0.745554 0.745443 0.745325 0.745199
          0.745065 0.744923 0.744774 0.744616 0.74445 0.744276 0.744093 0.743902 0.743702 0.743493 0.743276 0.743049
          0.742812 0.742566 0.742311 0.742046 0.74177 0.741485 0.741188 0.740882 0.740564 0.740235 0.739894 0.739542
          0.739178 0.738802 0.738413 0.738012 0.737597 0.737169 0.736727 0.736271 0.7358 0.735314 0.734813 0.734296
          0.733763 0.733212 0.732645 0.73206 0.731456 0.730834 0.730203 0.729661 0.730342 0.744841 0.88718
        </DataArray>
        <DataArray type="Float32" Name="saturation_n" NumberOfComponents="1" format="ascii">
          0.653236 0.612981 0.583302 0.559728 0.540201 0.523571 0.509125 0.496385 0.485014 0.474766 0.465456 0.45694
          0.449104 0.441856 0.435123 0.428843 0.422965 0.417445 0.412247 0.407339 0.402693 0.398287 0.394099 0.39011
          0.386306 0.382672 0.379194 0.375863 0.372666 0.369596 0.366643 0.363801 0.361062 0.35842 0.35587 0.353405
          0.351022 0.348716 0.346483 0.344318 0.342219 0.340183 0.338205 0.336284 0.334417 0.332601 0.330834 0.329115
          0.32744 0.325808 0.324218 0.322667 0.321154 0.319678 0.318237 0.31683 0.315456 0.314114 0.312801 0.311518
          0.310264 0.309037 0.307836 0.306661 0.305511 0.304385 0.303282 0.302202 0.301144 0.300107 0.299091 0.298094
          0.297118 0.29616 0.295221 0.2943 0.293397 0.29251 0.29164 0.290787 0.289949 0.289127 0.28832 0.287527
          0.286749 0.285985 0.285235 0.284498 0.283774 0.283064 0.282366 0.28168 0.281006 0.280344 0.279694 0.279055
          0.278427 0.27781 0.277204 0.276609 0.276024 0.275449 0.274884 0.274329 0.273783 0.273247 0.272721 0.272203
          0.271695 0.271196 0.270705 0.270224 0.26975 0.269285 0.268829 0.26838 0.26794 0.267508 0.267083 0.266667
          0.266258 0.265856 0.265462 0.265076 0.264697 0.264325 0.26396 0.263602 0.263252 0.262908 0.262571 0.262241
          0.261918 0.261602 0.261292 0.260989 0.260692 0.260402 0.260118 0.259841 0.25957 0.259305 0.259047 0.258794
          0.258549 0.258309 0.258075 0.257848 0.257626 0.257411 0.257202 0.256998 0.256801 0.25661 0.256424 0.256245
          0.256072 0.255904 0.255742 0.255587 0.255437 0.255293 0.255155 0.255023 0.254896 0.254776 0.254661 0.254553
          0.25445 0.254353 0.254263 0.254178 0.254099 0.254026 0.253959 0.253898 0.253844 0.253795 0.253752 0.253716
          0.253686 0.253661 0.253644 0.253632 0.253627 0.253628 0.253635 0.253649 0.25367 0.253697 0.253731 0.253771
          0.253818 0.253872 0.253933 0.254 0.254075 0.254157 0.254246 0.254342 0.254446 0.254557 0.254675 0.254801
          0.254935 0.255077 0.255226 0.255384 0.25555 0.255724 0.255907 0.256098 0.256298 0.256507 0.256725 0.256951
          0.257188 0.257434 0.257689 0.257954 0.25823 0.258515 0.258812 0.259118 0.259436 0.259765 0.260106 0.260458
          0.260822 0.261198 0.261587 0.261988 0.262403 0.262831 0.263273 0.263729 0.2642 0.264686 0.265187 0.265704
          0.266237 0.266788 0.267355 0.26794 0.268544 0.269166 0.269797 0.270339 0.269658 0.255159 0.11282
        </DataArray>
        <DataArray type="Float32" Name="relativePerm_w" NumberOfComponents="1" format="ascii">
          0.0394119 0.0540829 0.0669617 0.0785425 0.0890975 0.0988071 0.107802 0.116182 0.124026 0.131398 0.13835 0.144926
          0.151164 0.157095 0.162746 0.168143 0.173305 0.178252 0.182999 0.187561 0.191951 0.196181 0.200261 0.204201
          0.208009 0.211694 0.215262 0.218721 0.222075 0.225331 0.228493 0.231567 0.234557 0.237466 0.240299 0.243059
          0.245749 0.248372 0.250932 0.25343 0.255869 0.258252 0.260581 0.262858 0.265084 0.267262 0.269394 0.27148
          0.273523 0.275524 0.277485 0.279406 0.281289 0.283136 0.284947 0.286723 0.288465 0.290175 0.291853 0.293501
          0.295118 0.296707 0.298267 0.299799 0.301305 0.302784 0.304238 0.305667 0.307072 0.308452 0.30981 0.311145
          0.312458 0.313749 0.315019 0.316269 0.317498 0.318707 0.319897 0.321067 0.322219 0.323353 0.324469 0.325567
          0.326648 0.327712 0.328759 0.329789 0.330804 0.331803 0.332786 0.333754 0.334707 0.335645 0.336569 0.337478
          0.338373 0.339254 0.340122 0.340976 0.341816 0.342644 0.343458 0.34426 0.345049 0.345826 0.34659 0.347342
          0.348082 0.34881 0.349527 0.350231 0.350925 0.351607 0.352278 0.352937 0.353586 0.354224 0.354851 0.355467
          0.356073 0.356668 0.357253 0.357828 0.358392 0.358946 0.35949 0.360024 0.360549 0.361063 0.361567 0.362062
          0.362547 0.363023 0.363489 0.363945 0.364393 0.36483 0.365259 0.365678 0.366087 0.366488 0.366879 0.367261
          0.367634 0.367998 0.368353 0.368699 0.369036 0.369364 0.369683 0.369992 0.370293 0.370585 0.370868 0.371143
          0.371408 0.371664 0.371911 0.37215 0.372379 0.3726 0.372812 0.373014 0.373208 0.373393 0.373569 0.373735
          0.373893 0.374042 0.374181 0.374312 0.374433 0.374545 0.374648 0.374742 0.374826 0.374901 0.374967 0.375023
          0.37507 0.375107 0.375134 0.375152 0.37516 0.375158 0.375147 0.375125 0.375094 0.375052 0.375 0.374938
          0.374866 0.374783 0.374689 0.374585 0.37447 0.374344 0.374207 0.37406 0.3739 0.37373 0.373548 0.373354
          0.373149 0.372931 0.372702 0.37246 0.372206 0.371939 0.37166 0.371367 0.371062 0.370743 0.37041 0.370064
          0.369704 0.369329 0.368941 0.368537 0.368118 0.367685 0.367235 0.36677 0.366289 0.365791 0.365277 0.364746
          0.364197 0.36363 0.363046 0.362442 0.36182 0.361178 0.360517 0.359835 0.359132 0.358408 0.357662 0.356894
          0.356103 0.355288 0.35445 0.353586 0.352697 0.351782 0.350856 0.350063 0.35106 0.372805 0.64674
        </DataArray>
        <DataArray type="Float32" Name="relativePerm_n" NumberOfComponents="1" format="ascii">
          0.476803 0.422392 0.383996 0.354596 0.331003 0.31147 0.294927 0.280671 0.268215 0.257208 0.24739 0.238562
          0.230568 0.223287 0.21662 0.210485 0.204817 0.19956 0.194668 0.190101 0.185825 0.181812 0.178035 0.174474
          0.171108 0.167922 0.1649 0.162028 0.159296 0.156693 0.154208 0.151834 0.149564 0.147389 0.145304 0.143302
          0.14138 0.139531 0.137751 0.136037 0.134385 0.132791 0.131252 0.129766 0.128328 0.126938 0.125592 0.124289
          0.123026 0.121801 0.120614 0.119461 0.118341 0.117254 0.116197 0.11517 0.114171 0.113199 0.112252 0.111331
          0.110433 0.109559 0.108707 0.107876 0.107065 0.106275 0.105503 0.10475 0.104015 0.103297 0.102596 0.101911
          0.101241 0.100587 0.0999471 0.0993216 0.0987098 0.0981114 0.0975259 0.096953 0.0963924 0.0958436 0.0953064 0.0947804
          0.0942654 0.093761 0.0932669 0.092783 0.0923089 0.0918443 0.0913892 0.0909431 0.0905059 0.0900775 0.0896575 0.0892458
          0.0888422 0.0884465 0.0880585 0.0876782 0.0873052 0.0869395 0.0865809 0.0862292 0.0858843 0.0855462 0.0852145 0.0848893
          0.0845704 0.0842577 0.083951 0.0836502 0.0833554 0.0830662 0.0827827 0.0825048 0.0822323 0.0819652 0.0817033 0.0814467
          0.0811951 0.0809486 0.0807071 0.0804705 0.0802386 0.0800115 0.0797892 0.0795714 0.0793582 0.0791495 0.0789452 0.0787454
          0.0785499 0.0783586 0.0781716 0.0779888 0.0778102 0.0776357 0.0774652 0.0772987 0.0771363 0.0769778 0.0768232 0.0766725
          0.0765256 0.0763826 0.0762433 0.0761078 0.0759761 0.0758481 0.0757237 0.075603 0.075486 0.0753726 0.0752628 0.0751567
          0.075054 0.074955 0.0748595 0.0747676 0.0746792 0.0745943 0.074513 0.0744351 0.0743608 0.07429 0.0742226 0.0741588
          0.0740985 0.0740417 0.0739884 0.0739386 0.0738923 0.0738495 0.0738103 0.0737746 0.0737425 0.073714 0.073689 0.0736677
          0.0736499 0.0736358 0.0736253 0.0736186 0.0736155 0.0736161 0.0736205 0.0736287 0.0736407 0.0736566 0.0736763 0.0736999
          0.0737275 0.0737591 0.0737947 0.0738344 0.0738782 0.0739262 0.0739784 0.0740349 0.0740957 0.074161 0.0742306 0.0743048
          0.0743836 0.074467 0.0745552 0.0746482 0.074746 0.0748488 0.0749567 0.0750697 0.075188 0.0753116 0.0754406 0.0755752
          0.0757154 0.0758614 0.0760134 0.0761713 0.0763354 0.0765058 0.0766827 0.0768662 0.0770564 0.0772535 0.0774578 0.0776693
          0.0778883 0.078115 0.0783495 0.0785922 0.0788432 0.0791028 0.0793711 0.0796486 0.0799355 0.080232 0.0805385 0.0808553
          0.0811827 0.0815211 0.0818709 0.0822325 0.0826062 0.082992 0.0833847 0.083722 0.0832979 0.0745154 0.0141901
        </DataArray>
        <DataArray type="Float32" Name="porosity" NumberOfComponents="1" format="ascii">
          0.558 0.558 0.558 0.558 0.558 0.558 0.558 0.558 0.558 0.558 0.558 0.558
          0.558 0.558 0.558 0.558 0.558 0.558 0.558 0.558 0.558 0.558 0.558 0.558
          0.558 0.558 0.558 0.558 0.558 0.558 0.558 0.558 0.558 0.558 0.558 0.558
          0.558 0.558 0.558 0.558 0.558 0.558 0.558 0.558 0.558 0.558 0.558 0.558
          0.558 0.558 0.558 0.558 0.558 0.558 0.558 0.558 0.558 0.558 0.558 0.558
          0.558 0.558 0.558 0.558 0.558 0.558 0.558 0.558 0.558 0.558 0.558 0.558
          0.558 0.558 0.558 0.558 0.558 0.558 0.558 0.558 0.558 0.558 0.558 0.558
          0.558 0.558 0.558 0.558 0.558 0.558 0.558 0.558 0.558 0.558 0.558 0.558
          0.558 0.558 0.558 0.558 0.558 0.558 0.558 0.558 0.558 0.558 0.558 0.558
          0.558 0.558 0.558 0.558 0.558 0.558 0.558 0.558 0.558 0.558 0.558 0.558
          0.558 0.558 0.558 0.558 0.558 0.558 0.558 0.558 0.558 0.558 0.558 0.558
          0.558 0.558 0.558 0.558 0.558 0.558 0.558 0.558 0.558 0.558 0.558 0.558
          0.558 0.558 0.558 0.558 0.558 0.558 0.558 0.558 0.558 0.558 0.558 0.558
          0.558 0.558 0.558 0.558 0.558 0.558 0.558 0.558 0.558 0.558 0.558 0.558
          0.558 0.558 0.558 0.558 0.558 0.558 0.558 0.558 0.558 0.558 0.558 0.558
          0.558 0.558 0.558 0.558 0.558 0.558 0.558 0.558 0.558 0.558 0.558 0.558
          0.558 0.558 0.558 0.558 0.558 0.558 0.558 0.558 0.558 0.558 0.558 0.558
          0.558 0.558 0.558 0.558 0.558 0.558 0.558 0.558 0.558 0.558 0.558 0.558
          0.558 0.558 0.558 0.558 0.558 0.558 0.558 0.558 0.558 0.558 0.558 0.558
          0.558 0.558 0.558 0.558 0.558 0.558 0.558 0.558 0.558 0.558 0.558 0.558
          0.558 0.558 0.558 0.558 0.558 0.558 0.558 0.558 0.558 0.558 0.558
        </DataArray>
        <DataArray type="Float32" Name="filterVelocity_w" NumberOfComponents="1" format="ascii">
          0.000137051 0.000354647 0.000610316 0.000895061 0.00118908 0.00148745 0.00178807 0.00208981 0.00239194 0.00269402 0.0029957 0.00329676
          0.00359704 0.0038964 0.00419477 0.00449207 0.00478827 0.00508333 0.00537724 0.00567 0.00596159 0.00625203 0.00654132 0.00682947
          0.0071165 0.00740243 0.00768726 0.00797103 0.00825374 0.00853542 0.00881609 0.00909577 0.00937448 0.00965224 0.00992906 0.010205
          0.01048 0.0107542 0.0110275 0.0112999 0.0115716 0.0118424 0.0121125 0.0123818 0.0126503 0.0129182 0.0131853 0.0134517
          0.0137174 0.0139825 0.0142469 0.0145106 0.0147738 0.0150363 0.0152982 0.0155596 0.0158203 0.0160805 0.0163401 0.0165993
          0.0168578 0.0171159 0.0173734 0.0176305 0.0178871 0.0181432 0.0183988 0.018654 0.0189087 0.019163 0.0194168 0.0196703
          0.0199233 0.0201759 0.0204281 0.02068 0.0209315 0.0211825 0.0214333 0.0216836 0.0219337 0.0221834 0.0224327 0.0226817
          0.0229304 0.0231788 0.0234269 0.0236746 0.0239221 0.0241693 0.0244162 0.0246628 0.0249092 0.0251553 0.0254011 0.0256466
          0.025892 0.026137 0.0263818 0.0266264 0.0268708 0.0271149 0.0273588 0.0276025 0.027846 0.0280893 0.0283324 0.0285752
          0.0288179 0.0290604 0.0293027 0.0295448 0.0297867 0.0300285 0.0302701 0.0305115 0.0307528 0.0309939 0.0312348 0.0314756
          0.0317162 0.0319567 0.0321971 0.0324373 0.0326774 0.0329173 0.0331571 0.0333968 0.0336364 0.0338758 0.0341151 0.0343543
          0.0345934 0.0348324 0.0350712 0.03531 0.0355487 0.0357872 0.0360257 0.036264 0.0365023 0.0367405 0.0369785 0.0372165
          0.0374545 0.0376923 0.03793 0.0381677 0.0384053 0.0386428 0.0388802 0.0391176 0.0393549 0.0395921 0.0398292 0.0400663
          0.0403033 0.0405403 0.0407771 0.041014 0.0412507 0.0414874 0.0417241 0.0419607 0.0421972 0.0424336 0.04267 0.0429064
          0.0431427 0.0433789 0.0436151 0.0438512 0.0440873 0.0443233 0.0445593 0.0447952 0.0450311 0.0452669 0.0455026 0.0457383
          0.0459739 0.0462095 0.046445 0.0466804 0.0469158 0.0471511 0.0473864 0.0476216 0.0478567 0.0480918 0.0483267 0.0485617
          0.0487965 0.0490313 0.0492659 0.0495005 0.049735 0.0499694 0.0502038 0.050438 0.0506721 0.0509061 0.05114 0.0513738
          0.0516075 0.051841 0.0520744 0.0523077 0.0525408 0.0527738 0.0530067 0.0532393 0.0534718 0.0537041 0.0539363 0.0541682
          0.0543999 0.0546314 0.0548627 0.0550938 0.0553246 0.0555551 0.0557854 0.0560154 0.056245 0.0564744 0.0567034 0.0569321
          0.0571604 0.0573883 0.0576159 0.057843 0.0580696 0.0582958 0.0585215 0.0587467 0.0589713 0.0591953 0.0594188 0.0596416
          0.0598637 0.0600852 0.0603058 0.0605257 0.0607448 0.060963 0.0611802 0.0613961 0.0616076 0.0617939 0.0618761
        </DataArray>
        <DataArray type="Float32" Name="filterVelocity_n" NumberOfComponents="1" format="ascii">
          0.324724 0.324891 0.325216 0.325526 0.325827 0.326122 0.326413 0.326703 0.326992 0.327281 0.327572 0.327864
          0.32816 0.328458 0.32876 0.329065 0.329374 0.329687 0.330004 0.330326 0.330653 0.330984 0.33132 0.331661
          0.332007 0.332358 0.332714 0.333075 0.333442 0.333814 0.334191 0.334574 0.334962 0.335355 0.335755 0.336159
          0.33657 0.336986 0.337408 0.337835 0.338268 0.338707 0.339152 0.339603 0.340059 0.340522 0.340991 0.341465
          0.341946 0.342433 0.342926 0.343425 0.34393 0.344441 0.344959 0.345484 0.346014 0.346551 0.347095 0.347645
          0.348201 0.348765 0.349334 0.349911 0.350494 0.351085 0.351682 0.352286 0.352897 0.353515 0.35414 0.354773
          0.355412 0.356059 0.356713 0.357375 0.358044 0.358721 0.359405 0.360097 0.360797 0.361505 0.36222 0.362944
          0.363675 0.364415 0.365163 0.365919 0.366684 0.367457 0.368239 0.369029 0.369829 0.370637 0.371454 0.37228
          0.373115 0.373959 0.374813 0.375676 0.376549 0.377431 0.378323 0.379226 0.380138 0.38106 0.381992 0.382935
          0.383889 0.384853 0.385827 0.386813 0.38781 0.388817 0.389837 0.390867 0.391909 0.392963 0.394029 0.395107
          0.396198 0.3973 0.398416 0.399543 0.400684 0.401838 0.403006 0.404186 0.405381 0.406589 0.407811 0.409048
          0.410299 0.411565 0.412846 0.414141 0.415453 0.416779 0.418122 0.419481 0.420856 0.422247 0.423656 0.425081
          0.426524 0.427985 0.429463 0.43096 0.432476 0.43401 0.435563 0.437136 0.438729 0.440342 0.441975 0.44363
          0.445305 0.447002 0.448722 0.450463 0.452228 0.454015 0.455826 0.457662 0.459522 0.461407 0.463317 0.465253
          0.467216 0.469205 0.471222 0.473268 0.475341 0.477444 0.479577 0.48174 0.483933 0.486159 0.488417 0.490707
          0.493032 0.49539 0.497784 0.500213 0.502679 0.505183 0.507725 0.510306 0.512926 0.515588 0.518292 0.521038
          0.523829 0.526664 0.529545 0.532473 0.53545 0.538475 0.541552 0.54468 0.547861 0.551097 0.554389 0.557738
          0.561146 0.564614 0.568144 0.571739 0.575398 0.579125 0.582921 0.586788 0.590728 0.594744 0.598836 0.603009
          0.607263 0.611602 0.616028 0.620544 0.625152 0.629856 0.634658 0.639561 0.64457 0.649687 0.654916 0.660261
          0.665726 0.671314 0.677031 0.68288 0.688867 0.694997 0.701275 0.707706 0.714296 0.721051 0.727979 0.735085
          0.742377 0.749863 0.75755 0.765447 0.773563 0.781907 0.790491 0.799324 0.808426 0.817881 0.822684
        </DataArray>
        <DataArray type="Float32" Name="temperature" NumberOfComponents="1" format="ascii">
          299.75 299.75 299.75 299.75 299.75 299.75 299.75 299.75 299.75 299.75 299.75 299.75
          299.75 299.75 299.75 299.75 299.75 299.75 299.75 299.75 299.75 299.75 299.75 299.75
          299.75 299.75 299.75 299.75 299.75 299.75 299.75 299.75 299.75 299.75 299.75 299.75
          299.75 299.75 299.75 299.75 299.75 299.75 299.75 299.75 299.75 299.75 299.75 299.75
          299.75 299.75 299.75 299.75 299.75 299.75 299.75 299.75 299.75 299.75 299.75 299.75
          299.75 299.75 299.75 299.75 299.75 299.75 299.75 299.75 299.75 299.75 299.75 299.75
          299.75 299.75 299.75 299.75 299.75 299.75 299.75 299.75 299.75 299.75 299.75 299.75
          299.75 299.75 299.75 299.75 299.75 299.75 299.75 299.75 299.75 299.75 299.75 299.75
          299.75 299.75 299.75 299.75 299.75 299.75 299.75 299.75 299.75 299.75 299.75 299.75
          299.75 299.75 299.75 299.75 299.75 299.75 299.75 299.75 299.75 299.75 299.75 299.75
          299.75 299.75 299.75 299.75 299.75 299.75 299.75 299.75 299.75 299.75 299.75 299.75
          299.75 299.75 299.75 299.75 299.75 299.75 299.75 299.75 299.75 299.75 299.75 299.75
          299.75 299.75 299.75 299.75 299.75 299.75 299.75 299.75 299.75 299.75 299.75 299.75
          299.75 299.75 299.75 299.75 299.75 299.75 299.75 299.75 299.75 299.75 299.75 299.75
          299.75 299.75 299.75 299.75 299.75 299.75 299.75 299.75 299.75 299.75 299.75 299.75
          299.75 299.75 299.75 299.75 299.75 299.75 299.75 299.75 299.75 299.75 299.75 299.75
          299.75 299.75 299.75 299.75 299.75 299.75 299.75 299.75 299.75 299.75 299.75 299.75
          299.75 299.75 299.75 299.75 299.75 299.75 299.75 299.75 299.75 299.75 299.75 299.75
          299.75 299.75 299.75 299.75 299.75 299.75 299.75 299.75 299.75 299.75 299.75 299.75
          299.75 299.75 299.75 299.75 299.75 299.75 299.75 299.75 299.75 299.75 299.75 299.75
          299.75 299.75 299.75 299.75 299.75 299.75 299.75 299.75 299.75 299.75 299.75
        </DataArray>
      </PointData>
      <Points>
        <DataArray type="Float32" Name="Coordinates" NumberOfComponents="3" format="ascii">
          0 0 0 0.4 0 0 0.8 0 0 1.2 0 0
          1.6 0 0 2 0 0 2.4 0 0 2.8 0 0
          3.2 0 0 3.6 0 0 4 0 0 4.4 0 0
          4.8 0 0 5.2 0 0 5.6 0 0 6 0 0
          6.4 0 0 6.8 0 0 7.2 0 0 7.6 0 0
          8 0 0 8.4 0 0 8.8 0 0 9.2 0 0
          9.6 0 0 10 0 0 10.4 0 0 10.8 0 0
          11.2 0 0 11.6 0 0 12 0 0 12.4 0 0
          12.8 0 0 13.2 0 0 13.6 0 0 14 0 0
          14.4 0 0 14.8 0 0 15.2 0 0 15.6 0 0
          16 0 0 16.4 0 0 16.8 0 0 17.2 0 0
          17.6 0 0 18 0 0 18.4 0 0 18.8 0 0
          19.2 0 0 19.6 0 0 20 0 0 20.4 0 0
          20.8 0 0 21.2 0 0 21.6 0 0 22 0 0
          22.4 0 0 22.8 0 0 23.2 0 0 23.6 0 0
          24 0 0 24.4 0 0 24.8 0 0 25.2 0 0
          25.6 0 0 26 0 0 26.4 0 0 26.8 0 0
          27.2 0 0 27.6 0 0 28 0 0 28.4 0 0
          28.8 0 0 29.2 0 0 29.6 0 0 30 0 0
          30.4 0 0 30.8 0 0 31.2 0 0 31.6 0 0
          32 0 0 32.4 0 0 32.8 0 0 33.2 0 0
          33.6 0 0 34 0 0 34.4 0 0 34.8 0 0
          35.2 0 0 35.6 0 0 36 0 0 36.4 0 0
          36.8 0 0 37.2 0 0 37.6 0 0 38 0 0
          38.4 0 0 38.8 0 0 39.2 0 0 39.6 0 0
          40 0 0 40.4 0 0 40.8 0 0 41.2 0 0
          41.6 0 0 42 0 0 42.4 0 0 42.8 0 0
          43.2 0 0 43.6 0 0 44 0 0 44.4 0 0
          44.8 0 0 45.2 0 0 45.6 0 0 46 0 0
          46.4 0 0 46.8 0 0 47.2 0 0 47.6 0 0
          48 0 0 48.4 0 0 48.8 0 0 49.2 0 0
          49.6 0 0 50 0 0 50.4 0 0 50.8 0 0
          51.2 0 0 51.6 0 0 52 0 0 52.4 0 0
          52.8 0 0 53.2 0 0 53.6 0 0 54 0 0
          54.4 0 0 54.8 0 0 55.2 0 0 55.6 0 0
          56 0 0 56.4 0 0 56.8 0 0 57.2 0 0
          57.6 0 0 58 0 0 58.4 0 0 58.8 0 0
          59.2 0 0 59.6 0 0 60 0 0 60.4 0 0
          60.8 0 0 61.2 0 0 61.6 0 0 62 0 0
          62.4 0 0 62.8 0 0 63.2 0 0 63.6 0 0
          64 0 0 64.4 0 0 64.8 0 0 65.2 0 0
          65.6 0 0 66 0 0 66.4 0 0 66.8 0 0
          67.2 0 0 67.6 0 0 68 0 0 68.4 0 0
          68.8 0 0 69.2 0 0 69.6 0 0 70 0 0