<?xml version="1.0"?>
<VTKFile type="PolyData" version="0.1" byte_order="LittleEndian">
  <PolyData>
    <Piece NumberOfLines="250" NumberOfPoints="251">
      <PointData Scalars="pressure_w">
        <DataArray type="Float32" Name="pressure_w" NumberOfComponents="1" format="ascii">
          966584 966547 966466 966356 966224 966071 965900 965711 965505 965282 965042 964785
          964511 964220 963911 963586 963243 962882 962504 962107 961693 961260 960809 960339
          959851 959344 958818 958272 957708 957124 956520 955897 955254 954591 953908 953204
          952481 951736 950972 950187 949380 948554 947706 946836 945946 945035 944102 943147
          942171 941173 940153 939112 938048 936962 935854 934723 933571 932395 931197 929976
          928733 927467 926177 924865 923529 922170 920788 919382 917952 916499 915023 913522
          911998 910449 908876 907279 905658 904013 902342 900648 898928 897184 895415 893622
          891803 889958 888089 886194 884274 882329 880358 878361 876338 874290 872215 870115
          867988 865835 863656 861450 859218 856959 854673 852361 850021 847655 845262 842841
          840393 837918 835415 832885 830328 827742 825129 822487 819818 817121 814396 811642
          808860 806049 803210 800342 797446 794520 791566 788583 785570 782529 779457 776357
          773226 770066 766876 763657 760406 757126 753815 750474 747102 743699 740266 736801
          733304 729777 726217 722626 719003 715348 711660 707940 704187 700401 696582 692730
          688843 684924 680970 676981 672958 668900 664808 660679 656516 652316 648081 643809
          639500 635156 630773 626354 621897 617402 612869 608297 603687 599037 594347 589618
          584848 580038 575186 570294 565359 560381 555361 550298 545190 540039 534843 529602
          524314 518981 513601 508173 502697 497172 491598 485974 480300 474574 468796 462965
          457081 451142 445148 439098 432991 426826 420603 414319 407974 401568 395098 388564
          381965 375298 368564 361760 354885 347937 340915 333817 326642 319386 312049 304628
          297121 289526 281839 274059 266182 258206 250126 241940 233643 225233 216703 208051
          199270 190356 181300 172095 162732 153200 143486 133577 123453 113095 102485
        </DataArray>
        <DataArray type="Float32" Name="pressure_n" NumberOfComponents="1" format="ascii">
          969204 969082 968944 968790 968621 968437 968238 968025 967796 967553 967294 967019
          966729 966422 966100 965760 965405 965032 964642 964234 963809 963366 962906 962426
          961929 961413 960879 960326 959753 959162 958551 957920 957270 956601 955911 955202
          954472 953722 952952 952161 951349 950517 949664 948790 947894 946978 946040 945081
          944100 943098 942074 941028 939960 938870 937758 936623 935467 934287 933086 931861
          930614 929344 928051 926735 925396 924034 922648 921239 919807 918350 916871 915367
          913839 912288 910712 909112 907488 905840 904167 902470 900748 899001 897229 895433
          893611 891765 889893 887996 886073 884125 882152 880153 878128 876077 874000 871897
          869768 867613 865432 863224 860989 858728 856441 854126 851785 849417 847021 844599
          842149 839672 837167 834635 832076 829488 826873 824230 821559 818860 816133 813378
          810594 807782 804941 802072 799174 796247 793291 790306 787292 784249 781176 778074
          774942 771781 768589 765368 762117 758835 755523 752180 748807 745403 741968 738502
          735004 731475 727914 724322 720698 717041 713352 709631 705877 702090 698270 694416
          690529 686608 682653 678663 674640 670581 666487 662358 658193 653992 649756 645483
          641174 636828 632445 628025 623567 619071 614537 609965 605353 600703 596013 591282
          586512 581701 576849 571955 567019 562041 557021 551957 546849 541697 536500 531258
          525970 520637 515256 509827 504351 498826 493252 487628 481953 476226 470448 464617
          458733 452794 446800 440750 434642 428477 422254 415970 409626 403219 396750 390216
          383617 376951 370216 363413 356538 349591 342570 335472 328297 321043 313707 306287
          298781 291186 283501 275722 267847 259872 251794 243610 235316 226907 218381 209731
          200953 192042 182990 173789 164430 154903 145195 135291 125175 114824 104168
        </DataArray>
        <DataArray type="Float32" Name="density_w" NumberOfComponents="1" format="ascii">
          1000 1000 1000 1000 1000 1000 1000 1000 1000 1000 1000 1000
          1000 1000 1000 1000 1000 1000 1000 1000 1000 1000 1000 1000
          1000 1000 1000 1000 1000 1000 1000 1000 1000 1000 1000 1000
          1000 1000 1000 1000 1000 1000 1000 1000 1000 1000 1000 1000
          1000 1000 1000 1000 1000 1000 1000 1000 1000 1000 1000 1000
          1000 1000 1000 1000 1000 1000 1000 1000 1000 1000 1000 1000
          1000 1000 1000 1000 1000 1000 1000 1000 1000 1000 1000 1000
          1000 1000 1000 1000 1000 1000 1000 1000 1000 1000 1000 1000
          1000 1000 1000 1000 1000 1000 1000 1000 1000 1000 1000 1000
          1000 1000 1000 1000 1000 1000 1000 1000 1000 1000 1000 1000
          1000 1000 1000 1000 1000 1000 1000 1000 1000 1000 1000 1000
          1000 1000 1000 1000 1000 1000 1000 1000 1000 1000 1000 1000
          1000 1000 1000 1000 1000 1000 1000 1000 1000 1000 1000 1000
          1000 1000 1000 1000 1000 1000 1000 1000 1000 1000 1000 1000
          1000 1000 1000 1000 1000 1000 1000 1000 1000 1000 1000 1000
          1000 1000 1000 1000 1000 1000 1000 1000 1000 1000 1000 1000
          1000 1000 1000 1000 1000 1000 1000 1000 1000 1000 1000 1000
          1000 1000 1000 1000 1000 1000 1000 1000 1000 1000 1000 1000
          1000 1000 1000 1000 1000 1000 1000 1000 1000 1000 1000 1000
          1000 1000 1000 1000 1000 1000 1000 1000 1000 1000 1000 1000
          1000 1000 1000 1000 1000 1000 1000 1000 1000 1000 1000
        </DataArray>
        <DataArray type="Float32" Name="density_n" NumberOfComponents="1" format="ascii">
          11.2621 11.2607 11.2591 11.2573 11.2553 11.2532 11.2509 11.2484 11.2458 11.2429 11.2399 11.2367
          11.2334 11.2298 11.226 11.2221 11.218 11.2136 11.2091 11.2044 11.1994 11.1943 11.1889 11.1834
          11.1776 11.1716 11.1654 11.1589 11.1523 11.1454 11.1383 11.131 11.1234 11.1157 11.1077 11.0994
          11.0909 11.0822 11.0733 11.0641 11.0546 11.045 11.0351 11.0249 11.0145 11.0038 10.9929 10.9818
          10.9704 10.9588 10.9469 10.9347 10.9223 10.9096 10.8967 10.8835 10.8701 10.8564 10.8424 10.8282
          10.8137 10.7989 10.7839 10.7686 10.7531 10.7372 10.7211 10.7048 10.6881 10.6712 10.654 10.6365
          10.6188 10.6007 10.5824 10.5639 10.545 10.5258 10.5064 10.4867 10.4667 10.4464 10.4258 10.4049
          10.3837 10.3623 10.3405 10.3185 10.2961 10.2735 10.2506 10.2273 10.2038 10.18 10.1558 10.1314
          10.1067 10.0816 10.0563 10.0306 10.0047 9.97839 9.95181 9.92492 9.89771 9.87019 9.84235 9.81421
          9.78574 9.75696 9.72785 9.69843 9.66869 9.63862 9.60824 9.57753 9.54649 9.51513 9.48344 9.45142
          9.41907 9.38639 9.35338 9.32004 9.28637 9.25236 9.21801 9.18333 9.1483 9.11294 9.07724 9.04119
          9.0048 8.96806 8.93098 8.89355 8.85577 8.81763 8.77915 8.7403 8.70111 8.66155 8.62164 8.58136
          8.54072 8.49971 8.45834 8.4166 8.37448 8.33199 8.28913 8.24589 8.20226 8.15826 8.11387 8.06909
          8.02392 7.97836 7.9324 7.88604 7.83928 7.79212 7.74455 7.69657 7.64818 7.59937 7.55014 7.50049
          7.45042 7.39992 7.34899 7.29763 7.24582 7.19358 7.1409 7.08777 7.03418 6.98014 6.92564 6.87068
          6.81525 6.75934 6.70296 6.6461 6.58874 6.5309 6.47256 6.41371 6.35436 6.2945 6.23411 6.1732
          6.11176 6.04978 5.98725 5.92417 5.86054 5.79634 5.73157 5.66621 5.60027 5.53373 5.46659 5.39884
          5.33046 5.26145 5.19179 5.12149 5.05053 4.97889 4.90657 4.83356 4.75983 4.68539 4.61021 4.53429
          4.45761 4.38015 4.3019 4.22284 4.14296 4.06223 3.98064 3.89818 3.8148 3.7305 3.64526 3.55904
          3.47182 3.38358 3.29427 3.20388 3.11237 3.0197 2.92584 2.83074 2.73436 2.63666 2.53757 2.43706
          2.33507 2.23152 2.12634 2.01942 1.91068 1.79997 1.68716 1.57208 1.45453 1.33425 1.21043
        </DataArray>
        <DataArray type="Float32" Name="saturation_w" NumberOfComponents="1" format="ascii">
          0.282784 0.329499 0.364809 0.393979 0.419143 0.441421 0.461486 0.479778 0.496602 0.512181 0.526683 0.54024
          0.552958 0.564921 0.576203 0.586866 0.596962 0.606537 0.615633 0.624286 0.632528 0.640388 0.647894 0.655068
          0.661933 0.668508 0.674813 0.680863 0.686675 0.692262 0.697637 0.702814 0.707802 0.712612 0.717255 0.721738
          0.726071 0.730261 0.734316 0.738241 0.742044 0.74573 0.749305 0.752775 0.756143 0.759415 0.762594 0.765686
          0.768693 0.771619 0.774468 0.777243 0.779946 0.782581 0.785151 0.787657 0.790103 0.79249 0.794821 0.797098
          0.799322 0.801496 0.803621 0.8057 0.807733 0.809722 0.811668 0.813574 0.81544 0.817267 0.819057 0.820812
          0.822531 0.824216 0.825868 0.827488 0.829077 0.830636 0.832165 0.833666 0.835139 0.836585 0.838005 0.839399
          0.840768 0.842113 0.843434 0.844732 0.846007 0.84726 0.848492 0.849703 0.850893 0.852063 0.853213 0.854344
          0.855456 0.85655 0.857626 0.858684 0.859725 0.860748 0.861755 0.862746 0.863721 0.864679 0.865623 0.866551
          0.867464 0.868362 0.869246 0.870116 0.870971 0.871813 0.872642 0.873457 0.874259 0.875048 0.875825 0.876589
          0.877341 0.878081 0.878809 0.879526 0.880231 0.880925 0.881608 0.882281 0.882943 0.883594 0.884236 0.884867
          0.885489 0.886102 0.886705 0.887299 0.887884 0.88846 0.889027 0.889585 0.890135 0.890677 0.89121 0.891735
          0.892252 0.892761 0.893263 0.893757 0.894243 0.894723 0.895195 0.89566 0.896117 0.896568 0.897013 0.89745
          0.897881 0.898305 0.898723 0.899134 0.899539 0.899937 0.900329 0.900713 0.901091 0.901462 0.901827 0.902185
          0.902536 0.90288 0.903219 0.903551 0.903876 0.904195 0.904508 0.904814 0.905114 0.905407 0.905694 0.905975
          0.906248 0.906516 0.906776 0.90703 0.907277 0.907517 0.90775 0.907976 0.908195 0.908407 0.90861 0.908807
          0.908995 0.909176 0.909348 0.909512 0.909668 0.909815 0.909953 0.910082 0.910201 0.910311 0.91041 0.9105
          0.910578 0.910646 0.910702 0.910747 0.910779 0.910798 0.910804 0.910797 0.910775 0.910738 0.910686 0.910617
          0.910531 0.910428 0.910305 0.910162 0.909998 0.909812 0.909602 0.909368 0.909106 0.908817 0.908497 0.908144
          0.907757 0.907331 0.906865 0.906355 0.905797 0.905186 0.904517 0.903785 0.902982 0.902101 0.901132 0.900063
          0.898885 0.897586 0.89615 0.894556 0.892777 0.890783 0.888533 0.885974 0.883039 0.879872 0.898846
        </DataArray>
        <DataArray type="Float32" Name="saturation_n" NumberOfComponents="1" format="ascii">
          0.717216 0.670501 0.635191 0.606021 0.580857 0.558579 0.538514 0.520222 0.503398 0.487819 0.473317 0.45976
          0.447042 0.435079 0.423797 0.413134 0.403038 0.393463 0.384367 0.375714 0.367472 0.359612 0.352106 0.344932
          0.338067 0.331492 0.325187 0.319137 0.313325 0.307738 0.302363 0.297186 0.292198 0.287388 0.282745 0.278262
          0.273929 0.269739 0.265684 0.261759 0.257956 0.25427 0.250695 0.247225 0.243857 0.240585 0.237406 0.234314
          0.231307 0.228381 0.225532 0.222757 0.220054 0.217419 0.214849 0.212343 0.209897 0.20751 0.205179 0.202902
          0.200678 0.198504 0.196379 0.1943 0.192267 0.190278 0.188332 0.186426 0.18456 0.182733 0.180943 0.179189
          0.177469 0.175784 0.174132 0.172512 0.170923 0.169364 0.167835 0.166334 0.164861 0.163415 0.161995 0.160601
          0.159232 0.157887 0.156566 0.155268 0.153993 0.15274 0.151508 0.150297 0.149107 0.147937 0.146787 0.145656
          0.144544 0.14345 0.142374 0.141316 0.140275 0.139252 0.138245 0.137254 0.136279 0.135321 0.134377 0.133449
          0.132536 0.131638 0.130754 0.129884 0.129029 0.128187 0.127358 0.126543 0.125741 0.124952 0.124176 0.123411
          0.122659 0.121919 0.121191 0.120474 0.119769 0.119075 0.118392 0.117719 0.117057 0.116406 0.115764 0.115133
          0.114511 0.113898 0.113295 0.112701 0.112116 0.11154 0.110973 0.110415 0.109865 0.109323 0.10879 0.108265
          0.107748 0.107239 0.106737 0.106243 0.105757 0.105277 0.104805 0.10434 0.103883 0.103432 0.102987 0.10255
          0.102119 0.101695 0.101277 0.100866 0.100461 0.100063 0.0996713 0.0992866 0.0989087 0.0985376 0.0981732 0.0978154
          0.0974642 0.0971195 0.0967812 0.0964494 0.096124 0.0958049 0.0954923 0.095186 0.0948862 0.0945928 0.0943059 0.0940254
          0.0937515 0.0934843 0.0932237 0.0929698 0.0927228 0.0924827 0.0922496 0.0920236 0.0918049 0.0915935 0.0913895 0.0911932
          0.0910047 0.0908242 0.0906517 0.0904876 0.090332 0.090185 0.0900471 0.0899183 0.0897989 0.0896893 0.0895897 0.0895004
          0.0894218 0.0893541 0.0892979 0.0892535 0.0892213 0.0892018 0.0891955 0.089203 0.0892248 0.0892616 0.0893139 0.0893827
          0.0894686 0.0895725 0.0896953 0.089838 0.0900019 0.0901879 0.0903976 0.0906323 0.0908936 0.0911833 0.0915034 0.091856
          0.0922435 0.0926687 0.0931347 0.0936449 0.0942032 0.0948141 0.0954826 0.0962148 0.0970175 0.0978988 0.098868 0.0999366
          0.101115 0.102414 0.10385 0.105444 0.107223 0.109217 0.111467 0.114026 0.116961 0.120128 0.101154
        </DataArray>
        <DataArray type="Float32" Name="relativePerm_w" NumberOfComponents="1" format="ascii">
          0.0219558 0.0340315 0.0456084 0.0569395 0.0681057 0.0791391 0.0900517 0.100845 0.111517 0.122059 0.132465 0.142726
          0.152835 0.162784 0.172568 0.182182 0.191622 0.200885 0.20997 0.218876 0.227602 0.236151 0.244522 0.252719
          0.260744 0.268599 0.276289 0.283815 0.291182 0.298394 0.305454 0.312366 0.319133 0.325761 0.332251 0.338609
          0.344838 0.350942 0.356923 0.362786 0.368534 0.374171 0.379698 0.38512 0.39044 0.39566 0.400783 0.405812
          0.41075 0.415599 0.420361 0.42504 0.429636 0.434153 0.438593 0.442957 0.447247 0.451467 0.455616 0.459698
          0.463713 0.467664 0.471552 0.475378 0.479145 0.482853 0.486504 0.490099 0.493639 0.497127 0.500562 0.503947
          0.507282 0.510568 0.513806 0.516998 0.520144 0.523245 0.526303 0.529318 0.53229 0.535221 0.538112 0.540963
          0.543775 0.546549 0.549286 0.551985 0.554648 0.557276 0.559868 0.562426 0.56495 0.567441 0.569899 0.572324
          0.574718 0.57708 0.579411 0.581712 0.583983 0.586224 0.588435 0.590618 0.592772 0.594897 0.596995 0.599065
          0.601108 0.603124 0.605113 0.607075 0.609012 0.610922 0.612807 0.614667 0.616501 0.618311 0.620097 0.621858
          0.623596 0.625311 0.627002 0.62867 0.630316 0.631939 0.633541 0.635121 0.63668 0.638217 0.639735 0.641232
          0.642709 0.644166 0.645604 0.647023 0.648424 0.649806 0.651169 0.652514 0.65384 0.655149 0.65644 0.657714
          0.658971 0.660211 0.661434 0.662641 0.663832 0.665006 0.666165 0.667308 0.668436 0.669549 0.670646 0.671728
          0.672796 0.673849 0.674887 0.67591 0.676919 0.677913 0.678897 0.679877 0.680852 0.681823 0.682788 0.683747
          0.684699 0.685645 0.686582 0.687512 0.688432 0.689343 0.690244 0.691134 0.692013 0.692881 0.693735 0.694577
          0.695406 0.696219 0.697018 0.697802 0.698569 0.699318 0.700051 0.700764 0.701459 0.702133 0.702787 0.703419
          0.704029 0.704615 0.705178 0.705715 0.706226 0.70671 0.707166 0.707593 0.707989 0.708354 0.708687 0.708985
          0.709248 0.709475 0.709664 0.709814 0.709922 0.709988 0.710009 0.709983 0.70991 0.709786 0.70961 0.70938
          0.709092 0.708744 0.708334 0.707859 0.707315 0.7067 0.70601 0.705241 0.70439 0.703452 0.702422 0.701296
          0.70007 0.698737 0.697292 0.69573 0.694043 0.692226 0.690272 0.688174 0.685926 0.683523 0.680958 0.678229
          0.675291 0.672066 0.668517 0.664597 0.66025 0.655408 0.649982 0.643862 0.636907 0.629477 0.675194
        </DataArray>
        <DataArray type="Float32" Name="relativePerm_n" NumberOfComponents="1" format="ascii">
          0.568314 0.500916 0.45209 0.413253 0.380901 0.353188 0.328998 0.307599 0.288479 0.271264 0.255668 0.241468
          0.228487 0.216576 0.205614 0.195499 0.186141 0.177465 0.169404 0.161901 0.154904 0.148368 0.142253 0.136523
          0.131145 0.126092 0.121337 0.116857 0.11263 0.108637 0.104862 0.101288 0.0979011 0.0946879 0.0916365 0.088736
          0.0859763 0.0833482 0.0808433 0.0784537 0.0761723 0.0739925 0.0719081 0.0699135 0.0680035 0.0661732 0.064418 0.0627339
          0.0611168 0.0595633 0.0580699 0.0566334 0.0552509 0.0539197 0.0526372 0.051401 0.0502088 0.0490585 0.0479481 0.0468757
          0.0458397 0.0448382 0.0438698 0.0429331 0.0420265 0.0411488 0.0402989 0.0394754 0.0386773 0.0379035 0.0371531 0.0364251
          0.0357187 0.0350329 0.034367 0.0337202 0.0330918 0.0324811 0.0318874 0.0313102 0.0307488 0.0302026 0.0296712 0.0291539
          0.0286504 0.0281601 0.0276826 0.0272175 0.0267643 0.0263227 0.0258923 0.0254727 0.0250636 0.0246647 0.0242756 0.023896
          0.0235257 0.0231644 0.0228118 0.0224676 0.0221317 0.0218037 0.0214835 0.0211708 0.0208655 0.0205672 0.0202759 0.0199914
          0.0197134 0.0194419 0.0191765 0.0189173 0.0186639 0.0184163 0.0181743 0.0179377 0.0177065 0.0174805 0.0172595 0.0170434
          0.0168321 0.0166255 0.0164234 0.0162258 0.0160324 0.0158433 0.0156583 0.0154772 0.0153 0.0151266 0.0149568 0.0147906
          0.0146279 0.0144686 0.0143125 0.0141597 0.01401 0.0138633 0.0137197 0.013579 0.0134412 0.0133062 0.0131739 0.0130443
          0.0129173 0.0127929 0.0126709 0.0125513 0.0124341 0.0123193 0.0122066 0.0120962 0.0119879 0.0118818 0.0117777 0.0116757
          0.0115757 0.0114776 0.0113814 0.0112871 0.0111947 0.0111041 0.0110154 0.0109287 0.0108438 0.0107607 0.0106795 0.0106001
          0.0105224 0.0104464 0.0103721 0.0102995 0.0102286 0.0101593 0.0100916 0.0100255 0.00996099 0.00989809 0.00983677 0.00977702
          0.00971886 0.00966226 0.00960724 0.0095538 0.00950194 0.00945166 0.00940299 0.00935592 0.00931047 0.00926666 0.0092245 0.00918401
          0.0091452 0.00910812 0.00907277 0.00903918 0.0090074 0.00897745 0.00894937 0.0089232 0.00889898 0.00887676 0.0088566 0.00883854
          0.00882266 0.00880901 0.00879767 0.00878872 0.00878223 0.00877831 0.00877704 0.00877855 0.00878294 0.00879034 0.0088009 0.00881477
          0.00883211 0.00885311 0.00887797 0.00890691 0.00894018 0.00897804 0.0090208 0.00906878 0.00912236 0.00918195 0.00924802 0.00932108
          0.00940172 0.00949061 0.0095885 0.00969625 0.00981488 0.00994551 0.0100895 0.0102484 0.010424 0.0106186 0.0108347 0.0110755
          0.0113441 0.011644 0.0119803 0.0123592 0.012789 0.0132797 0.0138447 0.0145017 0.0152743 0.0161308 0.0113531
        </DataArray>
        <DataArray type="Float32" Name="porosity" NumberOfComponents="1" format="ascii">
          0.558 0.558 0.558 0.558 0.558 0.558 0.558 0.558 0.558 0.558 0.558 0.558
          0.558 0.558 0.558 0.558 0.558 0.558 0.558 0.558 0.558 0.558 0.558 0.558
          0.558 0.558 0.558 0.558 0.558 0.558 0.558 0.558 0.558 0.558 0.558 0.558
          0.558 0.558 0.558 0.558 0.558 0.558 0.558 0.558 0.558 0.558 0.558 0.558
          0.558 0.558 0.558 0.558 0.558 0.558 0.558 0.558 0.558 0.558 0.558 0.558
          0.558 0.558 0.558 0.558 0.558 0.558 0.558 0.558 0.558 0.558 0.558 0.558
          0.558 0.558 0.558 0.558 0.558 0.558 0.558 0.558 0.558 0.558 0.558 0.558
          0.558 0.558 0.558 0.558 0.558 0.558 0.558 0.558 0.558 0.558 0.558 0.558
          0.558 0.558 0.558 0.558 0.558 0.558 0.558 0.558 0.558 0.558 0.558 0.558
          0.558 0.558 0.558 0.558 0.558 0.558 0.558 0.558 0.558 0.558 0.558 0.558
          0.558 0.558 0.558 0.558 0.558 0.558 0.558 0.558 0.558 0.558 0.558 0.558
          0.558 0.558 0.558 0.558 0.558 0.558 0.558 0.558 0.558 0.558 0.558 0.558
          0.558 0.558 0.558 0.558 0.558 0.558 0.558 0.558 0.558 0.558 0.558 0.558
          0.558 0.558 0.558 0.558 0.558 0.558 0.558 0.558 0.558 0.558 0.558 0.558
          0.558 0.558 0.558 0.558 0.558 0.558 0.558 0.558 0.558 0.558 0.558 0.558
          0.558 0.558 0.558 0.558 0.558 0.558 0.558 0.558 0.558 0.558 0.558 0.558
          0.558 0.558 0.558 0.558 0.558 0.558 0.558 0.558 0.558 0.558 0.558 0.558
          0.558 0.558 0.558 0.558 0.558 0.558 0.558 0.558 0.558 0.558 0.558 0.558
          0.558 0.558 0.558 0.558 0.558 0.558 0.558 0.558 0.558 0.558 0.558 0.558
          0.558 0.558 0.558 0.558 0.558 0.558 0.558 0.558 0.558 0.558 0.558 0.558
          0.558 0.558 0.558 0.558 0.558 0.558 0.558 0.558 0.558 0.558 0.558
        </DataArray>
        <DataArray type="Float32" Name="filterVelocity_w" NumberOfComponents="1" format="ascii">
          0.00011682 0.000319663 0.000568179 0.000861451 0.00118153 0.00152272 0.00188172 0.00225608 0.00264378 0.00304307 0.00345241 0.00387041
          0.00429584 0.00472757 0.00516459 0.00560599 0.00605098 0.00649884 0.00694893 0.00740069 0.00785362 0.00830729 0.00876132 0.00921538
          0.00966918 0.0101225 0.010575 0.0110267 0.0114772 0.0119266 0.0123746 0.0128212 0.0132662 0.0137097 0.0141516 0.0145918
          0.0150302 0.0154669 0.0159019 0.0163351 0.0167664 0.017196 0.0176238 0.0180498 0.018474 0.0188964 0.0193171 0.019736
          0.0201532 0.0205686 0.0209824 0.0213945 0.0218049 0.0222136 0.0226207 0.0230262 0.0234302 0.0238326 0.0242334 0.0246327
          0.0250305 0.0254269 0.0258217 0.0262152 0.0266072 0.0269979 0.0273872 0.0277751 0.0281617 0.028547 0.028931 0.0293137
          0.0296952 0.0300754 0.0304544 0.0308323 0.0312089 0.0315844 0.0319587 0.0323319 0.032704 0.033075 0.0334449 0.0338138
          0.0341816 0.0345483 0.034914 0.0352787 0.0356424 0.0360051 0.0363668 0.0367276 0.0370873 0.0374462 0.0378041 0.038161
          0.038517 0.0388721 0.0392263 0.0395796 0.039932 0.0402835 0.0406341 0.0409839 0.0413327 0.0416807 0.0420277 0.0423739
          0.0427192 0.0430637 0.0434073 0.04375 0.0440918 0.0444328 0.0447729 0.0451121 0.0454506 0.0457882 0.046125 0.0464609
          0.0467961 0.0471305 0.0474642 0.0477971 0.0481293 0.0484608 0.0487916 0.0491217 0.0494513 0.0497802 0.0501086 0.0504364
          0.0507638 0.0510908 0.0514173 0.0517434 0.0520692 0.0523947 0.0527198 0.0530446 0.0533692 0.0536935 0.0540176 0.0543416
          0.0546654 0.0549891 0.0553128 0.0556365 0.0559602 0.056284 0.056608 0.0569321 0.0572564 0.0575809 0.0579058 0.058231
          0.0585566 0.0588826 0.059209 0.0595359 0.0598634 0.0601914 0.06052 0.0608493 0.0611793 0.06151 0.0618415 0.0621738
          0.0625071 0.0628412 0.0631763 0.0635123 0.0638494 0.0641875 0.0645266 0.0648669 0.0652084 0.0655509 0.0658947 0.0662397
          0.0665859 0.0669334 0.0672822 0.0676323 0.0679837 0.0683365 0.0686906 0.0690462 0.0694032 0.0697617 0.0701217 0.0704831
          0.0708461 0.0712107 0.0715768 0.0719446 0.072314 0.0726851 0.0730579 0.0734324 0.0738087 0.0741868 0.0745668 0.0749486
          0.0753323 0.075718 0.0761057 0.0764954 0.0768872 0.0772811 0.0776772 0.0780755 0.0784761 0.0788791 0.0792844 0.0796923
          0.0801027 0.0805157 0.0809314 0.0813499 0.0817712 0.0821955 0.0826229 0.0830534 0.0834872 0.0839244 0.0843652 0.0848096
          0.0852579 0.0857103 0.0861668 0.0866277 0.0870933 0.0875637 0.0880393 0.0885204 0.0890073 0.0895005 0.0900003 0.0905072
          0.0910219 0.0915449 0.0920768 0.0926181 0.0931696 0.093732 0.0943063 0.0948933 0.0954942 0.096109 0.0964187
        </DataArray>
        <DataArray type="Float32" Name="filterVelocity_n" NumberOfComponents="1" format="ascii">
          0.0889573 0.0890925 0.0893351 0.0895278 0.0896778 0.0897908 0.0898711 0.0899224 0.0899479 0.0899503 0.089932 0.0898952
          0.0898419 0.089774 0.0896929 0.0896002 0.0894971 0.0893848 0.0892644 0.0891368 0.0890028 0.0888634 0.0887191 0.0885705
          0.0884183 0.0882628 0.0881047 0.0879443 0.0877819 0.0876179 0.0874526 0.0872862 0.0871191 0.0869513 0.0867832 0.0866149
          0.0864466 0.0862785 0.0861106 0.0859431 0.0857761 0.0856098 0.0854441 0.0852793 0.0851154 0.0849525 0.0847906 0.0846298
          0.0844702 0.0843118 0.0841547 0.0839989 0.0838446 0.0836916 0.0835402 0.0833902 0.0832418 0.083095 0.0829498 0.0828062
          0.0826644 0.0825242 0.0823858 0.0822492 0.0821143 0.0819813 0.0818502 0.0817209 0.0815935 0.0814681 0.0813446 0.0812231
          0.0811036 0.0809861 0.0808707 0.0807574 0.0806461 0.080537 0.0804301 0.0803253 0.0802228 0.0801224 0.0800243 0.0799286
          0.0798351 0.0797439 0.0796552 0.0795688 0.0794849 0.0794034 0.0793244 0.0792479 0.079174 0.0791027 0.0790339 0.0789679
          0.0789045 0.0788439 0.0787861 0.078731 0.0786788 0.0786296 0.0785832 0.0785399 0.0784995 0.0784623 0.0784282 0.0783973
          0.0783696 0.0783452 0.0783241 0.0783064 0.0782922 0.0782814 0.0782743 0.0782707 0.0782708 0.0782746 0.0782821 0.0782935
          0.0783088 0.0783279 0.0783511 0.0783783 0.0784095 0.078445 0.0784846 0.0785284 0.0785766 0.0786291 0.078686 0.0787473
          0.0788132 0.0788836 0.0789586 0.0790383 0.0791228 0.0792121 0.0793063 0.0794056 0.07951 0.0796195 0.0797343 0.0798545
          0.0799802 0.0801114 0.0802482 0.0803907 0.0805391 0.0806934 0.0808538 0.0810203 0.0811931 0.0813724 0.0815582 0.0817507
          0.0819501 0.0821565 0.08237 0.0825909 0.0828194 0.0830555 0.0832997 0.0835519 0.0838125 0.0840816 0.0843595 0.0846464
          0.0849426 0.0852483 0.0855638 0.0858895 0.0862255 0.0865724 0.0869303 0.0872998 0.0876811 0.0880747 0.088481 0.0889005
          0.0893336 0.0897808 0.0902427 0.0907199 0.0912128 0.0917222 0.0922487 0.0927929 0.0933557 0.0939377 0.0945398 0.0951628
          0.0958077 0.0964754 0.0971669 0.0978833 0.0986258 0.0993956 0.100194 0.101022 0.101882 0.102775 0.103703 0.104667
          0.10567 0.106713 0.107799 0.10893 0.110109 0.111338 0.112621 0.113961 0.115361 0.116825 0.118357 0.119962
          0.121645 0.123411 0.125265 0.127215 0.129268 0.131431 0.133713 0.136123 0.138673 0.141375 0.144241 0.147286
          0.150529 0.153987 0.157682 0.16164 0.165888 0.170459 0.17539 0.180727 0.18652 0.192829 0.199727 0.2073
          0.215651 0.224907 0.235225 0.246802 0.259886 0.2748 0.291965 0.311946 0.335521 0.36379 0.378511
        </DataArray>
        <DataArray type="Float32" Name="temperature" NumberOfComponents="1" format="ascii">
          299.75 299.75 299.75 299.75 299.75 299.75 299.75 299.75 299.75 299.75 299.75 299.75
          299.75 299.75 299.75 299.75 299.75 299.75 299.75 299.75 299.75 299.75 299.75 299.75
          299.75 299.75 299.75 299.75 299.75 299.75 299.75 299.75 299.75 299.75 299.75 299.75
          299.75 299.75 299.75 299.75 299.75 299.75 299.75 299.75 299.75 299.75 299.75 299.75
          299.75 299.75 299.75 299.75 299.75 299.75 299.75 299.75 299.75 299.75 299.75 299.75
          299.75 299.75 299.75 299.75 299.75 299.75 299.75 299.75 299.75 299.75 299.75 299.75
          299.75 299.75 299.75 299.75 299.75 299.75 299.75 299.75 299.75 299.75 299.75 299.75
          299.75 299.75 299.75 299.75 299.75 299.75 299.75 299.75 299.75 299.75 299.75 299.75
          299.75 299.75 299.75 299.75 299.75 299.75 299.75 299.75 299.75 299.75 299.75 299.75
          299.75 299.75 299.75 299.75 299.75 299.75 299.75 299.75 299.75 299.75 299.75 299.75
          299.75 299.75 299.75 299.75 299.75 299.75 299.75 299.75 299.75 299.75 299.75 299.75
          299.75 299.75 299.75 299.75 299.75 299.75 299.75 299.75 299.75 299.75 299.75 299.75
          299.75 299.75 299.75 299.75 299.75 299.75 299.75 299.75 299.75 299.75 299.75 299.75
          299.75 299.75 299.75 299.75 299.75 299.75 299.75 299.75 299.75 299.75 299.75 299.75
          299.75 299.75 299.75 299.75 299.75 299.75 299.75 299.75 299.75 299.75 299.75 299.75
          299.75 299.75 299.75 299.75 299.75 299.75 299.75 299.75 299.75 299.75 299.75 299.75
          299.75 299.75 299.75 299.75 299.75 299.75 299.75 299.75 299.75 299.75 299.75 299.75
          299.75 299.75 299.75 299.75 299.75 299.75 299.75 299.75 299.75 299.75 299.75 299.75
          299.75 299.75 299.75 299.75 299.75 299.75 299.75 299.75 299.75 299.75 299.75 299.75
          299.75 299.75 299.75 299.75 299.75 299.75 299.75 299.75 299.75 299.75 299.75 299.75
          299.75 299.75 299.75 299.75 299.75 299.75 299.75 299.75 299.75 299.75 299.75
        </DataArray>
      </PointData>
      <Points>
        <DataArray type="Float32" Name="Coordinates" NumberOfComponents="3" format="ascii">
          0 0 0 0.4 0 0 0.8 0 0 1.2 0 0
          1.6 0 0 2 0 0 2.4 0 0 2.8 0 0
          3.2 0 0 3.6 0 0 4 0 0 4.4 0 0
          4.8 0 0 5.2 0 0 5.6 0 0 6 0 0
          6.4 0 0 6.8 0 0 7.2 0 0 7.6 0 0
          8 0 0 8.4 0 0 8.8 0 0 9.2 0 0
          9.6 0 0 10 0 0 10.4 0 0 10.8 0 0
          11.2 0 0 11.6 0 0 12 0 0 12.4 0 0
          12.8 0 0 13.2 0 0 13.6 0 0 14 0 0
          14.4 0 0 14.8 0 0 15.2 0 0 15.6 0 0
          16 0 0 16.4 0 0 16.8 0 0 17.2 0 0
          17.6 0 0 18 0 0 18.4 0 0 18.8 0 0
          19.2 0 0 19.6 0 0 20 0 0 20.4 0 0
          20.8 0 0 21.2 0 0 21.6 0 0 22 0 0
          22.4 0 0 22.8 0 0 23.2 0 0 23.6 0 0
          24 0 0 24.4 0 0 24.8 0 0 25.2 0 0
          25.6 0 0 26 0 0 26.4 0 0 26.8 0 0
          27.2 0 0 27.6 0 0 28 0 0 28.4 0 0
          28.8 0 0 29.2 0 0 29.6 0 0 30 0 0
          30.4 0 0 30.8 0 0 31.2 0 0 31.6 0 0
          32 0 0 32.4 0 0 32.8 0 0 33.2 0 0
          33.6 0 0 34 0 0 34.4 0 0 34.8 0 0
          35.2 0 0 35.6 0 0 36 0 0 36.4 0 0
          36.8 0 0 37.2 0 0 37.6 0 0 38 0 0
          38.4 0 0 38.8 0 0 39.2 0 0 39.6 0 0
          40 0 0 40.4 0 0 40.8 0 0 41.2 0 0
          41.6 0 0 42 0 0 42.4 0 0 42.8 0 0
          43.2 0 0 43.6 0 0 44 0 0 44.4 0 0
          44.8 0 0 45.2 0 0 45.6 0 0 46 0 0
          46.4 0 0 46.8 0 0 47.2 0 0 47.6 0 0
          48 0 0 48.4 0 0 48.8 0 0 49.2 0 0
          49.6 0 0 50 0 0 50.4 0 0 50.8 0 0
          51.2 0 0 51.6 0 0 52 0 0 52.4 0 0
          52.8 0 0 53.2 0 0 53.6 0 0 54 0 0