<?xml version="1.0"?>
<VTKFile type="PolyData" version="0.1" byte_order="LittleEndian">
  <PolyData>
    <Piece NumberOfLines="250" NumberOfPoints="251">
      <PointData Scalars="pressure_wetting">
        <DataArray type="Float32" Name="pressure_wetting" NumberOfComponents="1" format="ascii">
          976791 976754 976674 976566 976436 976286 976117 975931 975728 975508 975271 975017
          974747 974460 974156 973834 973496 973140 972766 972375 971966 971539 971093 970629
          970147 969646 969126 968587 968029 967451 966854 966238 965602 964946 964270 963574
          962858 962121 961364 960586 959788 958969 958129 957268 956386 955482 954558 953611
          952643 951654 950643 949609 948554 947477 946377 945256 944111 942945 941755 940543
          939309 938051 936770 935467 934140 932789 931416 930019 928598 927153 925685 924193
          922677 921137 919572 917984 916371 914733 913071 911384 909673 907936 906175 904388
          902577 900740 898877 896990 895076 893137 891172 889181 887164 885121 883051 880956
          878833 876685 874509 872307 870078 867822 865538 863228 860890 858524 856131 853711
          851262 848786 846281 843748 841187 838598 835979 833332 830657 827952 825218 822455
          819663 816841 813990 811108 808197 805256 802284 799282 796250 793187 790094 786969
          783813 780626 777408 774158 770876 767562 764216 760838 757428 753985 750510 747001
          743459 739884 736276 732633 728957 725247 721503 717724 713911 710062 706179 702260
          698306 694316 690291 686228 682130 677995 673823 669614 665367 661083 656761 652401
          648002 643565 639089 634573 630018 625423 620788 616112 611395 606638 601839 596998
          592115 587189 582221 577209 572154 567055 561911 556723 551489 546210 540884 535512
          530094 524627 519112 513549 507937 502276 496564 490801 484988 479122 473204 467232
          461207 455127 448992 442801 436553 430247 423883 417460 410977 404432 397825 391155
          384421 377621 370755 363822 356819 349745 342600 335382 328089 320719 313270 305742
          298131 290436 282653 274782 266819 258761 250605 242348 233987 225516 216932 208230
          199405 190450 181359 172123 162735 153183 143457 133541 123420 113072 102482
        </DataArray>
        <DataArray type="Float32" Name="pressure_nonwetting" NumberOfComponents="1" format="ascii">
          979410 979290 979154 979001 978834 978653 978457 978246 978020 977780 977524 977253
          976966 976664 976345 976010 975659 975291 974906 974503 974083 973646 973191 972717
          972226 971716 971188 970641 970075 969490 968886 968262 967619 966957 966274 965572
          964850 964107 963344 962561 961757 960933 960088 959221 958334 957426 956496 955545
          954573 953579 952563 951526 950466 949385 948281 947156 946007 944837 943644 942428
          941190 939928 938644 937337 936007 934653 933276 931876 930452 929004 927533 926038
          924518 922975 921408 919816 918201 916560 914895 913206 911492 909752 907988 906199
          904385 902545 900680 898790 896874 894932 892965 890972 888952 886907 884835 882737
          880613 878462 876284 874080 871848 869590 867305 864992 862652 860284 857889 855467
          853016 850538 848031 845496 842933 840342 837722 835073 832396 829689 826954 824189
          821395 818571 815718 812835 809922 806979 804006 801002 797968 794904 791808 788682
          785525 782336 779116 775865 772582 769266 765919 762540 759128 755684 752207 748697
          745154 741577 737967 734324 730646 726935 723190 719410 715595 711745 707861 703941
          699985 695994 691967 687904 683805 679668 675495 671285 667038 662752 658429 654068
          649668 645230 640753 636236 631680 627084 622448 617772 613054 608296 603496 598654
          593770 588844 583875 578863 573807 568707 563563 558374 553139 547860 542534 537161
          531741 526274 520759 515196 509583 503921 498209 492446 486632 480766 474848 468876
          462851 456771 450636 444444 438196 431891 425527 419104 412620 406076 399469 392800
          386066 379266 372401 365468 358465 351393 344248 337031 329738 322369 314922 307394
          299785 292090 284310 276440 268478 260422 252269 244014 235654 227186 218605 209906
          201083 192132 183044 173813 164429 154882 145162 135252 125138 114797 104161
        </DataArray>
        <DataArray type="Float32" Name="density_wetting" NumberOfComponents="1" format="ascii">
          1000 1000 1000 1000 1000 1000 1000 1000 1000 1000 1000 1000
          1000 1000 1000 1000 1000 1000 1000 1000 1000 1000 1000 1000
          1000 1000 1000 1000 1000 1000 1000 1000 1000 1000 1000 1000
          1000 1000 1000 1000 1000 1000 1000 1000 1000 1000 1000 1000
          1000 1000 1000 1000 1000 1000 1000 1000 1000 1000 1000 1000
          1000 1000 1000 1000 1000 1000 1000 1000 1000 1000 1000 1000
          1000 1000 1000 1000 1000 1000 1000 1000 1000 1000 1000 1000
          1000 1000 1000 1000 1000 1000 1000 1000 1000 1000 1000 1000
          1000 1000 1000 1000 1000 1000 1000 1000 1000 1000 1000 1000
          1000 1000 1000 1000 1000 1000 1000 1000 1000 1000 1000 1000
          1000 1000 1000 1000 1000 1000 1000 1000 1000 1000 1000 1000
          1000 1000 1000 1000 1000 1000 1000 1000 1000 1000 1000 1000
          1000 1000 1000 1000 1000 1000 1000 1000 1000 1000 1000 1000
          1000 1000 1000 1000 1000 1000 1000 1000 1000 1000 1000 1000
          1000 1000 1000 1000 1000 1000 1000 1000 1000 1000 1000 1000
          1000 1000 1000 1000 1000 1000 1000 1000 1000 1000 1000 1000
          1000 1000 1000 1000 1000 1000 1000 1000 1000 1000 1000 1000
          1000 1000 1000 1000 1000 1000 1000 1000 1000 1000 1000 1000
          1000 1000 1000 1000 1000 1000 1000 1000 1000 1000 1000 1000
          1000 1000 1000 1000 1000 1000 1000 1000 1000 1000 1000 1000
          1000 1000 1000 1000 1000 1000 1000 1000 1000 1000 1000
        </DataArray>
        <DataArray type="Float32" Name="density_nonwetting" NumberOfComponents="1" format="ascii">
          11.3807 11.3793 11.3777 11.376 11.374 11.3719 11.3696 11.3672 11.3646 11.3618 11.3588 11.3556
          11.3523 11.3488 11.3451 11.3412 11.3371 11.3328 11.3284 11.3237 11.3188 11.3137 11.3084 11.3029
          11.2972 11.2913 11.2852 11.2788 11.2722 11.2654 11.2584 11.2512 11.2437 11.236 11.2281 11.2199
          11.2115 11.2029 11.194 11.1849 11.1756 11.166 11.1562 11.1461 11.1358 11.1253 11.1144 11.1034
          11.0921 11.0806 11.0687 11.0567 11.0444 11.0318 11.019 11.0059 10.9926 10.979 10.9651 10.951
          10.9366 10.9219 10.907 10.8918 10.8764 10.8606 10.8446 10.8284 10.8118 10.795 10.7779 10.7605
          10.7429 10.7249 10.7067 10.6882 10.6695 10.6504 10.631 10.6114 10.5915 10.5713 10.5508 10.53
          10.5089 10.4875 10.4659 10.4439 10.4216 10.3991 10.3762 10.3531 10.3296 10.3058 10.2817 10.2574
          10.2327 10.2077 10.1824 10.1568 10.1308 10.1046 10.078 10.0512 10.024 9.99647 9.96864 9.94049
          9.91201 9.88321 9.85409 9.82464 9.79485 9.76474 9.7343 9.70352 9.67241 9.64096 9.60917 9.57704
          9.54457 9.51176 9.47861 9.44511 9.41126 9.37706 9.34252 9.30762 9.27236 9.23675 9.20078 9.16446
          9.12777 9.09072 9.0533 9.01552 8.97737 8.93885 8.89995 8.86068 8.82104 8.78102 8.74061 8.69983
          8.65866 8.6171 8.57515 8.53281 8.49008 8.44696 8.40343 8.35951 8.31518 8.27045 8.22531 8.17976
          8.1338 8.08743 8.04063 7.99342 7.94578 7.89772 7.84923 7.80031 7.75095 7.70116 7.65092 7.60025
          7.54912 7.49755 7.44552 7.39304 7.3401 7.2867 7.23282 7.17848 7.12367 7.06837 7.0126 6.95634
          6.89959 6.84235 6.78461 6.72636 6.66761 6.60835 6.54858 6.48828 6.42746 6.36611 6.30422 6.24179
          6.17881 6.11529 6.0512 5.98656 5.92134 5.85555 5.78917 5.72221 5.65465 5.58649 5.51771 5.44832
          5.37831 5.30766 5.23637 5.16443 5.09182 5.01855 4.94461 4.86997 4.79463 4.71859 4.64182 4.56432
          4.48607 4.40706 4.32728 4.24672 4.16535 4.08317 4.00015 3.91628 3.83154 3.74592 3.65938 3.57191
          3.48348 3.39408 3.30367 3.21222 3.11971 3.0261 2.93135 2.83543 2.73829 2.63989 2.54018 2.4391
          2.33658 2.23256 2.12697 2.0197 1.91066 1.79973 1.68677 1.57163 1.4541 1.33394 1.21035
        </DataArray>
        <DataArray type="Float32" Name="saturation_wetting" NumberOfComponents="1" format="ascii">
          0.282746 0.329125 0.364258 0.393312 0.418393 0.44061 0.460629 0.478886 0.495687 0.51125 0.525745 0.539301
          0.552022 0.563995 0.575291 0.585971 0.596087 0.605685 0.614805 0.623483 0.631751 0.639639 0.647172 0.654374
          0.661267 0.667871 0.674204 0.680282 0.68612 0.691734 0.697136 0.702338 0.707352 0.712187 0.716854 0.721361
          0.725717 0.729929 0.734005 0.737952 0.741776 0.745483 0.749078 0.752566 0.755954 0.759244 0.762442 0.765551
          0.768575 0.771519 0.774384 0.777175 0.779895 0.782546 0.785131 0.787652 0.790113 0.792515 0.79486 0.797152
          0.79939 0.801578 0.803718 0.80581 0.807856 0.809859 0.811819 0.813738 0.815618 0.817459 0.819262 0.82103
          0.822762 0.82446 0.826126 0.82776 0.829362 0.830934 0.832478 0.833992 0.835479 0.836939 0.838373 0.839781
          0.841165 0.842524 0.84386 0.845173 0.846464 0.847733 0.84898 0.850207 0.851414 0.8526 0.853768 0.854916
          0.856046 0.857158 0.858253 0.85933 0.860391 0.861434 0.862462 0.863474 0.86447 0.865452 0.866418 0.86737
          0.868308 0.869231 0.870141 0.871037 0.87192 0.87279 0.873648 0.874493 0.875325 0.876146 0.876954 0.877751
          0.878537 0.879311 0.880074 0.880826 0.881567 0.882298 0.883018 0.883728 0.884428 0.885117 0.885797 0.886467
          0.887128 0.887779 0.888421 0.889054 0.889677 0.890292 0.890897 0.891494 0.892082 0.892662 0.893233 0.893795
          0.894349 0.894895 0.895433 0.895963 0.896485 0.896998 0.897504 0.898002 0.898492 0.898975 0.899449 0.899916
          0.900376 0.900828 0.901272 0.901709 0.902139 0.902561 0.902975 0.903383 0.903782 0.904175 0.90456 0.904938
          0.905309 0.905672 0.906028 0.906376 0.906717 0.907051 0.907377 0.907696 0.908007 0.908311 0.908607 0.908896
          0.909177 0.909451 0.909716 0.909974 0.910224 0.910465 0.910699 0.910925 0.911142 0.911351 0.911551 0.911743
          0.911925 0.912099 0.912264 0.912419 0.912565 0.912701 0.912828 0.912944 0.91305 0.913145 0.913229 0.913302
          0.913364 0.913413 0.913451 0.913475 0.913487 0.913485 0.913469 0.913438 0.913392 0.913331 0.913253 0.913158
          0.913045 0.912913 0.912761 0.912589 0.912395 0.912178 0.911936 0.911669 0.911375 0.911051 0.910697 0.910309
          0.909886 0.909424 0.908922 0.908375 0.90778 0.907133 0.906429 0.905662 0.904826 0.903913 0.902916 0.901824
          0.900625 0.899306 0.897849 0.896235 0.894436 0.892423 0.890155 0.88758 0.884632 0.881455 0.900199
        </DataArray>
        <DataArray type="Float32" Name="saturation_nonwetting" NumberOfComponents="1" format="ascii">
          0.717254 0.670875 0.635742 0.606688 0.581607 0.55939 0.539371 0.521114 0.504313 0.48875 0.474255 0.460699
          0.447978 0.436005 0.424709 0.414029 0.403913 0.394316 0.385195 0.376517 0.368249 0.360361 0.352828 0.345626
          0.338733 0.332129 0.325796 0.319718 0.31388 0.308266 0.302864 0.297662 0.292648 0.287813 0.283146 0.278639
          0.274283 0.270071 0.265995 0.262048 0.258224 0.254517 0.250922 0.247434 0.244046 0.240756 0.237558 0.234449
          0.231425 0.228481 0.225616 0.222825 0.220105 0.217454 0.214869 0.212348 0.209887 0.207485 0.20514 0.202848
          0.20061 0.198422 0.196282 0.19419 0.192144 0.190141 0.188181 0.186262 0.184382 0.182541 0.180738 0.17897
          0.177238 0.17554 0.173874 0.17224 0.170638 0.169066 0.167523 0.166008 0.164521 0.163061 0.161627 0.160219
          0.158835 0.157476 0.15614 0.154827 0.153536 0.152267 0.15102 0.149793 0.148586 0.1474 0.146232 0.145084
          0.143954 0.142842 0.141747 0.14067 0.139609 0.138566 0.137538 0.136526 0.135529 0.134548 0.133582 0.13263
          0.131692 0.130769 0.129859 0.128963 0.12808 0.12721 0.126352 0.125507 0.124675 0.123854 0.123046 0.122249
          0.121463 0.120689 0.119926 0.119174 0.118433 0.117702 0.116982 0.116272 0.115572 0.114883 0.114203 0.113533
          0.112872 0.112221 0.111579 0.110946 0.110323 0.109708 0.109103 0.108506 0.107918 0.107338 0.106767 0.106205
          0.105651 0.105105 0.104567 0.104037 0.103515 0.103002 0.102496 0.101998 0.101508 0.101025 0.100551 0.100084
          0.0996241 0.0991722 0.0987277 0.0982908 0.0978613 0.0974393 0.0970246 0.0966174 0.0962175 0.0958249 0.0954398 0.0950619
          0.0946914 0.0943282 0.0939724 0.093624 0.0932829 0.0929492 0.0926229 0.0923041 0.0919927 0.0916888 0.0913925 0.0911038
          0.0908228 0.0905494 0.0902838 0.0900261 0.0897763 0.0895345 0.0893008 0.0890753 0.0888581 0.0886493 0.088449 0.0882574
          0.0880746 0.0879008 0.0877361 0.0875807 0.0874348 0.0872986 0.0871723 0.0870561 0.0869503 0.0868551 0.0867709 0.0866978
          0.0866364 0.0865868 0.0865494 0.0865248 0.0865132 0.0865152 0.0865312 0.0865618 0.0866076 0.0866691 0.086747 0.0868421
          0.0869552 0.087087 0.0872386 0.0874109 0.087605 0.0878221 0.0880635 0.0883307 0.0886252 0.0889488 0.0893034 0.0896911
          0.0901142 0.0905756 0.0910779 0.0916247 0.0922196 0.0928669 0.0935713 0.0943384 0.0951745 0.0960869 0.0970841 0.0981761
          0.0993747 0.100694 0.102151 0.103765 0.105564 0.107577 0.109845 0.11242 0.115368 0.118545 0.0998007
        </DataArray>
        <DataArray type="Float32" Name="relativePerm_wetting" NumberOfComponents="1" format="ascii">
          0.0219474 0.0339205 0.0454099 0.0566613 0.0677534 0.0787176 0.0895658 0.1003 0.110917 0.121411 0.131774 0.141998
          0.152075 0.161999 0.171763 0.181361 0.190791 0.200048 0.209131 0.218038 0.22677 0.235326 0.243709 0.251919
          0.259959 0.267831 0.275539 0.283085 0.290474 0.297708 0.304791 0.311726 0.318518 0.325171 0.331687 0.33807
          0.344325 0.350455 0.356463 0.362353 0.368127 0.37379 0.379344 0.384793 0.390139 0.395386 0.400536 0.405592
          0.410556 0.415432 0.420221 0.424925 0.429548 0.434092 0.438558 0.442948 0.447265 0.451511 0.455687 0.459795
          0.463836 0.467814 0.471728 0.475581 0.479375 0.48311 0.486788 0.49041 0.493978 0.497493 0.500956 0.504369
          0.507732 0.511047 0.514314 0.517535 0.52071 0.523842 0.526929 0.529975 0.532978 0.535941 0.538864 0.541748
          0.544593 0.547401 0.550171 0.552906 0.555605 0.558269 0.560899 0.563495 0.566058 0.568588 0.571087 0.573555
          0.575991 0.578397 0.580774 0.583121 0.58544 0.58773 0.589992 0.592226 0.594434 0.596614 0.598769 0.600898
          0.603001 0.605079 0.607132 0.609161 0.611165 0.613146 0.615103 0.617037 0.618948 0.620837 0.622703 0.624547
          0.626369 0.62817 0.629949 0.631707 0.633444 0.635161 0.636857 0.638533 0.640189 0.641825 0.643441 0.645038
          0.646615 0.648174 0.649713 0.651233 0.652735 0.654218 0.655683 0.65713 0.658558 0.659968 0.66136 0.662735
          0.664091 0.66543 0.666752 0.668055 0.669342 0.670611 0.671862 0.673097 0.674314 0.675514 0.676696 0.677862
          0.679011 0.680142 0.681257 0.682354 0.683434 0.684497 0.685543 0.686572 0.687584 0.688578 0.689556 0.690516
          0.691458 0.692383 0.693291 0.69418 0.695053 0.695907 0.696743 0.697561 0.698361 0.699142 0.699905 0.700649
          0.701374 0.70208 0.702766 0.703433 0.70408 0.704707 0.705313 0.705899 0.706463 0.707006 0.707527 0.708026
          0.708502 0.708956 0.709385 0.709791 0.710172 0.710528 0.710859 0.711163 0.711439 0.711689 0.711909 0.712101
          0.712262 0.712392 0.71249 0.712554 0.712584 0.712579 0.712537 0.712457 0.712337 0.712176 0.711972 0.711723
          0.711427 0.711082 0.710685 0.710235 0.709728 0.709161 0.708531 0.707835 0.707069 0.706227 0.705306 0.704301
          0.703205 0.702012 0.700716 0.699307 0.697778 0.696118 0.694315 0.692357 0.690229 0.687915 0.685393 0.682642
          0.679635 0.676339 0.672718 0.668725 0.664304 0.659388 0.653889 0.647697 0.640674 0.633183 0.678569
        </DataArray>
        <DataArray type="Float32" Name="relativePerm_nonwetting" NumberOfComponents="1" format="ascii">
          0.56837 0.501444 0.452838 0.414126 0.381849 0.354181 0.330016 0.308627 0.289506 0.272279 0.256665 0.242441
          0.22943 0.217487 0.206491 0.196339 0.186944 0.17823 0.170131 0.162591 0.155557 0.148985 0.142835 0.137071
          0.131662 0.126577 0.121793 0.117284 0.11303 0.109011 0.105211 0.101614 0.0982044 0.0949699 0.0918983 0.0889785
          0.0862006 0.0835551 0.0810336 0.0786283 0.076332 0.0741379 0.07204 0.0700325 0.0681102 0.0662681 0.0645017 0.0628069
          0.0611797 0.0596163 0.0581136 0.0566681 0.0552771 0.0539376 0.0526472 0.0514034 0.0502039 0.0490465 0.0479294 0.0468505
          0.0458081 0.0448005 0.0438262 0.0428837 0.0419716 0.0410885 0.0402333 0.0394047 0.0386016 0.0378229 0.0370678 0.0363351
          0.0356241 0.0349338 0.0342635 0.0336123 0.0329796 0.0323647 0.0317668 0.0311854 0.0306199 0.0300696 0.0295341 0.0290128
          0.0285052 0.0280109 0.0275294 0.0270602 0.0266029 0.0261572 0.0257227 0.0252989 0.0248856 0.0244824 0.0240891 0.0237052
          0.0233305 0.0229647 0.0226075 0.0222587 0.0219181 0.0215853 0.0212602 0.0209425 0.020632 0.0203286 0.0200319 0.0197419
          0.0194583 0.019181 0.0189098 0.0186445 0.0183849 0.018131 0.0178825 0.0176394 0.0174014 0.0171685 0.0169405 0.0167174
          0.0164989 0.0162849 0.0160754 0.0158703 0.0156694 0.0154727 0.0152799 0.0150912 0.0149063 0.0147251 0.0145477 0.0143738
          0.0142035 0.0140366 0.0138731 0.0137129 0.0135559 0.0134021 0.0132514 0.0131037 0.012959 0.0128172 0.0126782 0.0125421
          0.0124087 0.012278 0.0121499 0.0120244 0.0119015 0.0117811 0.0116631 0.0115476 0.0114344 0.0113236 0.0112151 0.0111088
          0.0110048 0.0109029 0.0108032 0.0107057 0.0106103 0.0105169 0.0104256 0.0103363 0.0102489 0.0101636 0.0100802 0.00999876
          0.00991921 0.00984155 0.00976576 0.00969182 0.00961972 0.00954946 0.009481 0.00941435 0.00934949 0.00928642 0.00922512 0.00916559
          0.00910783 0.00905183 0.00899759 0.00894511 0.00889439 0.00884544 0.00879826 0.00875285 0.00870922 0.0086674 0.00862737 0.00858917
          0.0085528 0.00851829 0.00848566 0.00845493 0.00842613 0.00839928 0.00837442 0.0083516 0.00833083 0.00831218 0.00829569 0.0082814
          0.00826939 0.0082597 0.00825242 0.0082476 0.00824535 0.00824573 0.00824886 0.00825483 0.00826376 0.00827578 0.00829102 0.00830964
          0.00833179 0.00835767 0.00838747 0.00842141 0.00845972 0.00850269 0.00855059 0.00860377 0.00866258 0.00872743 0.00879877 0.00887712
          0.00896304 0.00905717 0.00916026 0.00927313 0.00939674 0.00953216 0.00968067 0.00984371 0.010023 0.0102205 0.0104386 0.0106802
          0.0109485 0.0112478 0.011583 0.0119604 0.0123878 0.0128754 0.0134362 0.0140876 0.0148524 0.0156995 0.0110447
        </DataArray>
        <DataArray type="Float32" Name="porosity" NumberOfComponents="1" format="ascii">
          0.558 0.558 0.558 0.558 0.558 0.558 0.558 0.558 0.558 0.558 0.558 0.558
          0.558 0.558 0.558 0.558 0.558 0.558 0.558 0.558 0.558 0.558 0.558 0.558
          0.558 0.558 0.558 0.558 0.558 0.558 0.558 0.558 0.558 0.558 0.558 0.558
          0.558 0.558 0.558 0.558 0.558 0.558 0.558 0.558 0.558 0.558 0.558 0.558
          0.558 0.558 0.558 0.558 0.558 0.558 0.558 0.558 0.558 0.558 0.558 0.558
          0.558 0.558 0.558 0.558 0.558 0.558 0.558 0.558 0.558 0.558 0.558 0.558
          0.558 0.558 0.558 0.558 0.558 0.558 0.558 0.558 0.558 0.558 0.558 0.558
          0.558 0.558 0.558 0.558 0.558 0.558 0.558 0.558 0.558 0.558 0.558 0.558
          0.558 0.558 0.558 0.558 0.558 0.558 0.558 0.558 0.558 0.558 0.558 0.558
          0.558 0.558 0.558 0.558 0.558 0.558 0.558 0.558 0.558 0.558 0.558 0.558
          0.558 0.558 0.558 0.558 0.558 0.558 0.558 0.558 0.558 0.558 0.558 0.558
          0.558 0.558 0.558 0.558 0.558 0.558 0.558 0.558 0.558 0.558 0.558 0.558
          0.558 0.558 0.558 0.558 0.558 0.558 0.558 0.558 0.558 0.558 0.558 0.558
          0.558 0.558 0.558 0.558 0.558 0.558 0.558 0.558 0.558 0.558 0.558 0.558
          0.558 0.558 0.558 0.558 0.558 0.558 0.558 0.558 0.558 0.558 0.558 0.558
          0.558 0.558 0.558 0.558 0.558 0.558 0.558 0.558 0.558 0.558 0.558 0.558
          0.558 0.558 0.558 0.558 0.558 0.558 0.558 0.558 0.558 0.558 0.558 0.558
          0.558 0.558 0.558 0.558 0.558 0.558 0.558 0.558 0.558 0.558 0.558 0.558
          0.558 0.558 0.558 0.558 0.558 0.558 0.558 0.558 0.558 0.558 0.558 0.558
          0.558 0.558 0.558 0.558 0.558 0.558 0.558 0.558 0.558 0.558 0.558 0.558
          0.558 0.558 0.558 0.558 0.558 0.558 0.558 0.558 0.558 0.558 0.558
        </DataArray>
        <DataArray type="Float32" Name="filterVelocity_wetting" NumberOfComponents="1" format="ascii">
          0.000114593 0.000244544 0.000517898 0.000816326 0.00113651 0.00147574 0.00183175 0.00220256 0.00258642 0.00298175 0.00338711 0.0038012
          0.00422282 0.00465088 0.00508441 0.00552251 0.00596439 0.00640934 0.00685672 0.00730596 0.00775656 0.0082081 0.00866016 0.00911242
          0.00956458 0.0100164 0.0104676 0.010918 0.0113675 0.0118159 0.0122631 0.0127089 0.0131534 0.0135964 0.0140378 0.0144776
          0.0149158 0.0153523 0.0157872 0.0162203 0.0166518 0.0170815 0.0175094 0.0179357 0.0183602 0.018783 0.0192041 0.0196235
          0.0200412 0.0204573 0.0208717 0.0212845 0.0216957 0.0221053 0.0225133 0.0229198 0.0233248 0.0237282 0.0241302 0.0245307
          0.0249297 0.0253274 0.0257237 0.0261185 0.0265121 0.0269043 0.0272952 0.0276849 0.0280732 0.0284604 0.0288463 0.029231
          0.0296146 0.029997 0.0303782 0.0307584 0.0311375 0.0315155 0.0318924 0.0322683 0.0326432 0.0330171 0.0333901 0.0337621
          0.0341331 0.0345032 0.0348725 0.0352408 0.0356083 0.0359749 0.0363408 0.0367058 0.03707 0.0374334 0.037796 0.038158
          0.0385191 0.0388796 0.0392394 0.0395985 0.0399569 0.0403147 0.0406718 0.0410284 0.0413843 0.0417396 0.0420944 0.0424486
          0.0428022 0.0431553 0.0435079 0.04386 0.0442116 0.0445628 0.0449134 0.0452636 0.0456134 0.0459628 0.0463118 0.0466604
          0.0470086 0.0473564 0.0477039 0.048051 0.0483979 0.0487444 0.0490906 0.0494366 0.0497822 0.0501277 0.0504729 0.0508178
          0.0511625 0.0515071 0.0518514 0.0521956 0.0525397 0.0528835 0.0532273 0.0535709 0.0539144 0.0542579 0.0546012 0.0549445
          0.0552878 0.055631 0.0559742 0.0563174 0.0566606 0.0570039 0.0573472 0.0576905 0.0580339 0.0583774 0.058721 0.0590647
          0.0594086 0.0597526 0.0600968 0.0604411 0.0607857 0.0611305 0.0614755 0.0618207 0.0621662 0.0625121 0.0628582 0.0632046
          0.0635514 0.0638986 0.0642461 0.064594 0.0649424 0.0652912 0.0656405 0.0659902 0.0663405 0.0666913 0.0670426 0.0673945
          0.067747 0.0681002 0.0684539 0.0688084 0.0691635 0.0695194 0.0698761 0.0702335 0.0705917 0.0709508 0.0713107 0.0716715
          0.0720333 0.072396 0.0727598 0.0731246 0.0734904 0.0738574 0.0742254 0.0745947 0.0749652 0.075337 0.0757101 0.0760845
          0.0764604 0.0768377 0.0772165 0.0775969 0.0779788 0.0783624 0.0787478 0.0791349 0.0795239 0.0799148 0.0803077 0.0807026
          0.0810996 0.0814989 0.0819005 0.0823044 0.0827108 0.0831198 0.0835314 0.0839459 0.0843632 0.0847835 0.085207 0.0856337
          0.0860639 0.0864977 0.0869352 0.0873766 0.0878222 0.088272 0.0887264 0.0891856 0.0896499 0.0901195 0.0905948 0.0910761
          0.0915638 0.0920583 0.0925601 0.0930697 0.0935879 0.0941152 0.0946524 0.0952005 0.0957606 0.0963331 0.0966225
        </DataArray>
        <DataArray type="Float32" Name="filterVelocity_nonwetting" NumberOfComponents="1" format="ascii">
          0.088033 0.0881696 0.088416 0.0886131 0.0887682 0.0888866 0.0889728 0.0890301 0.0890618 0.0890704 0.0890584 0.0890278
          0.0889807 0.0889187 0.0888434 0.0887563 0.0886586 0.0885516 0.0884362 0.0883134 0.0881841 0.088049 0.0879088 0.0877642
          0.0876157 0.0874639 0.0873092 0.0871519 0.0869926 0.0868314 0.0866688 0.086505 0.0863403 0.0861748 0.0860088 0.0858425
          0.0856761 0.0855096 0.0853433 0.0851773 0.0850117 0.0848466 0.084682 0.0845182 0.0843552 0.084193 0.0840318 0.0838716
          0.0837125 0.0835544 0.0833976 0.083242 0.0830877 0.0829347 0.0827831 0.0826329 0.0824841 0.0823368 0.0821911 0.0820468
          0.0819042 0.0817632 0.0816238 0.0814861 0.08135 0.0812157 0.0810831 0.0809523 0.0808233 0.0806961 0.0805708 0.0804473
          0.0803256 0.0802059 0.0800881 0.0799723 0.0798584 0.0797465 0.0796366 0.0795288 0.079423 0.0793193 0.0792177 0.0791182
          0.0790208 0.0789256 0.0788326 0.0787418 0.0786533 0.078567 0.078483 0.0784013 0.0783219 0.0782449 0.0781702 0.078098
          0.0780283 0.077961 0.0778961 0.0778339 0.0777741 0.077717 0.0776625 0.0776106 0.0775614 0.0775149 0.0774712 0.0774303
          0.0773922 0.0773569 0.0773246 0.0772952 0.0772688 0.0772454 0.0772251 0.0772079 0.0771938 0.077183 0.0771754 0.0771711
          0.0771702 0.0771727 0.0771786 0.0771881 0.0772012 0.0772179 0.0772382 0.0772624 0.0772904 0.0773223 0.0773581 0.077398
          0.077442 0.0774902 0.0775427 0.0775995 0.0776608 0.0777266 0.0777969 0.077872 0.077952 0.0780368 0.0781266 0.0782215
          0.0783217 0.0784272 0.0785381 0.0786546 0.0787769 0.0789049 0.079039 0.0791792 0.0793256 0.0794785 0.0796379 0.079804
          0.0799771 0.0801573 0.0803447 0.0805396 0.0807422 0.0809526 0.0811712 0.081398 0.0816334 0.0818776 0.0821308 0.0823933
          0.0826654 0.0829474 0.0832395 0.0835422 0.0838557 0.0841803 0.0845165 0.0848645 0.0852249 0.085598 0.0859842 0.086384
          0.0867979 0.0872263 0.0876699 0.0881291 0.0886046 0.089097 0.0896068 0.0901348 0.0906817 0.0912483 0.0918354 0.0924438
          0.0930744 0.0937282 0.0944061 0.0951093 0.0958389 0.0965961 0.0973821 0.0981984 0.0990464 0.0999277 0.100844 0.101797
          0.102788 0.103821 0.104896 0.106016 0.107184 0.108402 0.109674 0.111003 0.112392 0.113844 0.115365 0.116958
          0.118628 0.12038 0.122221 0.124157 0.126194 0.128341 0.130605 0.132997 0.135527 0.138206 0.141049 0.144068
          0.147282 0.150708 0.154368 0.158286 0.162491 0.167013 0.17189 0.177165 0.182888 0.189118 0.195927 0.203397
          0.211633 0.220757 0.230924 0.242325 0.255202 0.269869 0.286734 0.306344 0.329446 0.357097 0.372215
        </DataArray>
        <DataArray type="Float32" Name="temperature" NumberOfComponents="1" format="ascii">
          299.75 299.75 299.75 299.75 299.75 299.75 299.75 299.75 299.75 299.75 299.75 299.75
          299.75 299.75 299.75 299.75 299.75 299.75 299.75 299.75 299.75 299.75 299.75 299.75
          299.75 299.75 299.75 299.75 299.75 299.75 299.75 299.75 299.75 299.75 299.75 299.75
          299.75 299.75 299.75 299.75 299.75 299.75 299.75 299.75 299.75 299.75 299.75 299.75
          299.75 299.75 299.75 299.75 299.75 299.75 299.75 299.75 299.75 299.75 299.75 299.75
          299.75 299.75 299.75 299.75 299.75 299.75 299.75 299.75 299.75 299.75 299.75 299.75
          299.75 299.75 299.75 299.75 299.75 299.75 299.75 299.75 299.75 299.75 299.75 299.75
          299.75 299.75 299.75 299.75 299.75 299.75 299.75 299.75 299.75 299.75 299.75 299.75
          299.75 299.75 299.75 299.75 299.75 299.75 299.75 299.75 299.75 299.75 299.75 299.75
          299.75 299.75 299.75 299.75 299.75 299.75 299.75 299.75 299.75 299.75 299.75 299.75
          299.75 299.75 299.75 299.75 299.75 299.75 299.75 299.75 299.75 299.75 299.75 299.75
          299.75 299.75 299.75 299.75 299.75 299.75 299.75 299.75 299.75 299.75 299.75 299.75
          299.75 299.75 299.75 299.75 299.75 299.75 299.75 299.75 299.75 299.75 299.75 299.75
          299.75 299.75 299.75 299.75 299.75 299.75 299.75 299.75 299.75 299.75 299.75 299.75
          299.75 299.75 299.75 299.75 299.75 299.75 299.75 299.75 299.75 299.75 299.75 299.75
          299.75 299.75 299.75 299.75 299.75 299.75 299.75 299.75 299.75 299.75 299.75 299.75
          299.75 299.75 299.75 299.75 299.75 299.75 299.75 299.75 299.75 299.75 299.75 299.75
          299.75 299.75 299.75 299.75 299.75 299.75 299.75 299.75 299.75 299.75 299.75 299.75
          299.75 299.75 299.75 299.75 299.75 299.75 299.75 299.75 299.75 299.75 299.75 299.75
          299.75 299.75 299.75 299.75 299.75 299.75 299.75 299.75 299.75 299.75 299.75 299.75
          299.75 299.75 299.75 299.75 299.75 299.75 299.75 299.75 299.75 299.75 299.75
        </DataArray>
      </PointData>
      <Points>
        <DataArray type="Float32" Name="Coordinates" NumberOfComponents="3" format="ascii">
          0 0 0 0.4 0 0 0.8 0 0 1.2 0 0
          1.6 0 0 2 0 0 2.4 0 0 2.8 0 0
          3.2 0 0 3.6 0 0 4 0 0 4.4 0 0
          4.8 0 0 5.2 0 0 5.6 0 0 6 0 0
          6.4 0 0 6.8 0 0 7.2 0 0 7.6 0 0
          8 0 0 8.4 0 0 8.8 0 0 9.2 0 0
          9.6 0 0 10 0 0 10.4 0 0 10.8 0 0
          11.2 0 0 11.6 0 0 12 0 0 12.4 0 0
          12.8 0 0 13.2 0 0 13.6 0 0 14 0 0
          14.4 0 0 14.8 0 0 15.2 0 0 15.6 0 0
          16 0 0 16.4 0 0 16.8 0 0 17.2 0 0
          17.6 0 0 18 0 0 18.4 0 0 18.8 0 0
          19.2 0 0 19.6 0 0 20 0 0 20.4 0 0
          20.8 0 0 21.2 0 0 21.6 0 0 22 0 0
          22.4 0 0 22.8 0 0 23.2 0 0 23.6 0 0
          24 0 0 24.4 0 0 24.8 0 0 25.2 0 0
          25.6 0 0 26 0 0 26.4 0 0 26.8 0 0
          27.2 0 0 27.6 0 0 28 0 0 28.4 0 0
          28.8 0 0 29.2 0 0 29.6 0 0 30 0 0
          30.4 0 0 30.8 0 0 31.2 0 0 31.6 0 0
          32 0 0 32.4 0 0 32.8 0 0 33.2 0 0
          33.6 0 0 34 0 0 34.4 0 0 34.8 0 0
          35.2 0 0 35.6 0 0 36 0 0 36.4 0 0
          36.8 0 0 37.2 0 0 37.6 0 0 38 0 0
          38.4 0 0 38.8 0 0 39.2 0 0 39.6 0 0
          40 0 0 40.4 0 0 40.8 0 0 41.2 0 0
          41.6 0 0 42 0 0 42.4 0 0 42.8 0 0
          43.2 0 0 43.6 0 0 44 0 0 44.4 0 0
          44.8 0 0 45.2 0 0 45.6 0 0 46 0 0
          46.4 0 0 46.8 0 0 47.2 0 0 47.6 0 0
          48 0 0 48.4 0 0 48.8 0 0 49.2 0 0
          49.6 0 0 50 0 0 50.4 0 0 50.8 0 0