<?xml version="1.0"?>
<VTKFile type="PolyData" version="0.1" byte_order="LittleEndian">
  <PolyData>
    <Piece NumberOfLines="250" NumberOfPoints="251">
      <PointData Scalars="pressure_w">
        <DataArray type="Float32" Name="pressure_w" NumberOfComponents="1" format="ascii">
          262558 262533 262478 262403 262313 262209 262095 261970 261836 261694 261543 261385
          261219 261046 260867 260681 260488 260290 260085 259875 259659 259437 259210 258977
          258739 258495 258247 257993 257735 257471 257202 256929 256651 256368 256081 255788
          255492 255190 254884 254574 254260 253940 253617 253289 252957 252621 252280 251935
          251586 251233 250876 250515 250149 249780 249406 249029 248647 248261 247872 247478
          247081 246679 246274 245865 245452 245035 244614 244190 243761 243329 242893 242453
          242009 241562 241110 240656 240197 239734 239268 238798 238325 237847 237366 236882
          236393 235901 235405 234906 234403 233896 233385 232871 232354 231832 231307 230778
          230246 229710 229170 228627 228080 227530 226975 226418 225856 225291 224722 224150
          223574 222994 222411 221824 221234 220640 220042 219441 218836 218227 217615 216999
          216379 215756 215129 214499 213864 213226 212585 211940 211291 210638 209982 209322
          208658 207991 207320 206645 205967 205284 204598 203909 203215 202518 201817 201112
          200404 199692 198976 198256 197532 196805 196073 195338 194599 193856 193109 192359
          191604 190846 190083 189317 188547 187773 186995 186213 185427 184637 183843 183044
          182242 181436 180626 179811 178993 178170 177344 176513 175678 174839 173995 173147
          172296 171439 170579 169714 168845 167972 167094 166212 165325 164434 163539 162639
          161735 160826 159912 158994 158071 157144 156212 155275 154334 153388 152437 151481
          150520 149555 148585 147609 146629 145644 144653 143658 142657 141652 140641 139624
          138603 137576 136544 135506 134463 133414 132360 131300 130234 129163 128086 127003
          125914 124819 123718 122611 121497 120378 119252 118120 116981 115836 114684 113525
          112360 111187 110008 108822 107628 106427 105219 104003 102780 101555 100379
        </DataArray>
        <DataArray type="Float32" Name="pressure_n" NumberOfComponents="1" format="ascii">
          265065 264978 264879 264771 264654 264528 264394 264252 264104 263948 263785 263616
          263440 263258 263070 262876 262676 262471 262259 262043 261821 261593 261360 261122
          260879 260631 260378 260121 259858 259590 259318 259041 258759 258473 258182 257887
          257587 257283 256974 256661 256343 256022 255696 255365 255031 254692 254349 254002
          253651 253296 252936 252573 252205 251834 251458 251079 250695 250308 249917 249521
          249122 248719 248312 247902 247487 247068 246646 246220 245790 245357 244919 244478
          244033 243584 243132 242675 242215 241752 241284 240813 240339 239860 239378 238892
          238403 237910 237413 236912 236408 235900 235389 234874 234355 233833 233307 232777
          232244 231707 231167 230622 230075 229523 228968 228410 227848 227282 226712 226139
          225563 224982 224398 223811 223220 222625 222027 221425 220819 220210 219597 218980
          218360 217736 217109 216478 215843 215205 214562 213917 213267 212614 211958 211297
          210633 209965 209294 208618 207940 207257 206571 205880 205187 204489 203788 203083
          202374 201661 200945 200225 199501 198773 198041 197306 196566 195823 195076 194325
          193571 192812 192049 191283 190512 189738 188960 188178 187391 186601 185807 185009
          184206 183400 182590 181775 180956 180134 179307 178476 177641 176802 175958 175110
          174258 173402 172542 171677 170808 169935 169057 168175 167288 166397 165502 164602
          163698 162789 161875 160957 160035 159108 158176 157239 156298 155352 154401 153446
          152485 151520 150550 149575 148595 147610 146619 145624 144624 143618 142608 141592
          140571 139544 138512 137475 136432 135384 134330 133270 132205 131134 130058 128975
          127887 126792 125692 124585 123473 122354 121229 120097 118959 117814 116663 115505
          114341 113169 111990 110805 109612 108412 107205 105990 104766 103526 102165
        </DataArray>
        <DataArray type="Float32" Name="density_w" NumberOfComponents="1" format="ascii">
          1000 1000 1000 1000 1000 1000 1000 1000 1000 1000 1000 1000
          1000 1000 1000 1000 1000 1000 1000 1000 1000 1000 1000 1000
          1000 1000 1000 1000 1000 1000 1000 1000 1000 1000 1000 1000
          1000 1000 1000 1000 1000 1000 1000 1000 1000 1000 1000 1000
          1000 1000 1000 1000 1000 1000 1000 1000 1000 1000 1000 1000
          1000 1000 1000 1000 1000 1000 1000 1000 1000 1000 1000 1000
          1000 1000 1000 1000 1000 1000 1000 1000 1000 1000 1000 1000
          1000 1000 1000 1000 1000 1000 1000 1000 1000 1000 1000 1000
          1000 1000 1000 1000 1000 1000 1000 1000 1000 1000 1000 1000
          1000 1000 1000 1000 1000 1000 1000 1000 1000 1000 1000 1000
          1000 1000 1000 1000 1000 1000 1000 1000 1000 1000 1000 1000
          1000 1000 1000 1000 1000 1000 1000 1000 1000 1000 1000 1000
          1000 1000 1000 1000 1000 1000 1000 1000 1000 1000 1000 1000
          1000 1000 1000 1000 1000 1000 1000 1000 1000 1000 1000 1000
          1000 1000 1000 1000 1000 1000 1000 1000 1000 1000 1000 1000
          1000 1000 1000 1000 1000 1000 1000 1000 1000 1000 1000 1000
          1000 1000 1000 1000 1000 1000 1000 1000 1000 1000 1000 1000
          1000 1000 1000 1000 1000 1000 1000 1000 1000 1000 1000 1000
          1000 1000 1000 1000 1000 1000 1000 1000 1000 1000 1000 1000
          1000 1000 1000 1000 1000 1000 1000 1000 1000 1000 1000 1000
          1000 1000 1000 1000 1000 1000 1000 1000 1000 1000 1000
        </DataArray>
        <DataArray type="Float32" Name="density_n" NumberOfComponents="1" format="ascii">
          3.08004 3.07903 3.07789 3.07663 3.07526 3.0738 3.07225 3.0706 3.06887 3.06706 3.06517 3.0632
          3.06116 3.05905 3.05686 3.05461 3.05229 3.0499 3.04744 3.04493 3.04234 3.0397 3.037 3.03423
          3.03141 3.02853 3.02559 3.02259 3.01954 3.01643 3.01326 3.01005 3.00677 3.00345 3.00007 2.99663
          2.99315 2.98961 2.98603 2.98239 2.9787 2.97496 2.97117 2.96733 2.96345 2.95951 2.95553 2.95149
          2.94741 2.94328 2.93911 2.93489 2.93062 2.9263 2.92194 2.91753 2.91307 2.90857 2.90402 2.89943
          2.89479 2.89011 2.88538 2.88061 2.87579 2.87093 2.86602 2.86107 2.85607 2.85103 2.84595 2.84082
          2.83565 2.83044 2.82518 2.81988 2.81453 2.80915 2.80372 2.79824 2.79273 2.78717 2.78156 2.77592
          2.77023 2.7645 2.75873 2.75291 2.74705 2.74115 2.73521 2.72922 2.7232 2.71713 2.71102 2.70486
          2.69867 2.69243 2.68615 2.67982 2.67346 2.66705 2.6606 2.65411 2.64758 2.64101 2.63439 2.62773
          2.62103 2.61429 2.6075 2.60067 2.59381 2.58689 2.57994 2.57295 2.56591 2.55883 2.55171 2.54454
          2.53734 2.53009 2.5228 2.51546 2.50809 2.50067 2.49321 2.4857 2.47816 2.47057 2.46294 2.45526
          2.44755 2.43979 2.43198 2.42414 2.41625 2.40832 2.40034 2.39232 2.38426 2.37616 2.36801 2.35981
          2.35158 2.3433 2.33497 2.3266 2.31819 2.30973 2.30123 2.29268 2.28409 2.27546 2.26678 2.25805
          2.24928 2.24047 2.23161 2.2227 2.21375 2.20475 2.19571 2.18662 2.17748 2.1683 2.15907 2.14979
          2.14047 2.1311 2.12168 2.11222 2.10271 2.09315 2.08354 2.07388 2.06418 2.05443 2.04463 2.03478
          2.02488 2.01493 2.00493 1.99488 1.98478 1.97463 1.96443 1.95418 1.94388 1.93353 1.92312 1.91267
          1.90216 1.8916 1.88098 1.87032 1.8596 1.84882 1.83799 1.82711 1.81617 1.80518 1.79413 1.78303
          1.77187 1.76066 1.74938 1.73805 1.72666 1.71522 1.70371 1.69215 1.68052 1.66884 1.6571 1.64529
          1.63343 1.6215 1.60951 1.59745 1.58534 1.57316 1.56091 1.5486 1.53622 1.52378 1.51127 1.49869
          1.48604 1.47332 1.46054 1.44768 1.43475 1.42175 1.40867 1.39552 1.3823 1.369 1.35562 1.34217
          1.32863 1.31502 1.30133 1.28755 1.27369 1.25974 1.24571 1.2316 1.21738 1.20297 1.18716
        </DataArray>
        <DataArray type="Float32" Name="saturation_w" NumberOfComponents="1" format="ascii">
          0.346659 0.386902 0.41657 0.440133 0.459652 0.476274 0.490714 0.50345 0.514817 0.525061 0.534369 0.542883
          0.550718 0.557964 0.564696 0.570975 0.576853 0.582372 0.58757 0.592478 0.597123 0.601529 0.605718 0.609706
          0.61351 0.617144 0.620621 0.623953 0.627149 0.63022 0.633172 0.636014 0.638753 0.641395 0.643945 0.64641
          0.648793 0.651099 0.653332 0.655496 0.657595 0.659631 0.661609 0.66353 0.665397 0.667212 0.668979 0.670698
          0.672373 0.674004 0.675595 0.677145 0.678657 0.680133 0.681574 0.68298 0.684354 0.685697 0.687009 0.688291
          0.689546 0.690772 0.691973 0.693147 0.694297 0.695423 0.696525 0.697605 0.698663 0.6997 0.700715 0.701711
          0.702687 0.703645 0.704583 0.705504 0.706407 0.707293 0.708162 0.709016 0.709853 0.710675 0.711482 0.712274
          0.713051 0.713815 0.714565 0.715301 0.716024 0.716735 0.717432 0.718118 0.718791 0.719453 0.720103 0.720741
          0.721368 0.721985 0.72259 0.723185 0.72377 0.724345 0.724909 0.725464 0.726009 0.726544 0.72707 0.727587
          0.728095 0.728594 0.729084 0.729565 0.730038 0.730502 0.730959 0.731407 0.731846 0.732278 0.732702 0.733119
          0.733527 0.733928 0.734322 0.734708 0.735086 0.735458 0.735822 0.736179 0.736529 0.736873 0.737209 0.737539
          0.737861 0.738177 0.738487 0.738789 0.739086 0.739375 0.739659 0.739936 0.740206 0.74047 0.740728 0.74098
          0.741226 0.741465 0.741698 0.741925 0.742146 0.742361 0.74257 0.742773 0.74297 0.743161 0.743346 0.743525
          0.743698 0.743865 0.744026 0.744182 0.744331 0.744475 0.744612 0.744744 0.74487 0.74499 0.745104 0.745213
          0.745315 0.745411 0.745502 0.745586 0.745665 0.745738 0.745804 0.745865 0.745919 0.745968 0.74601 0.746046
          0.746077 0.7461 0.746118 0.74613 0.746135 0.746133 0.746126 0.746112 0.746091 0.746064 0.74603 0.74599
          0.745943 0.745889 0.745828 0.74576 0.745686 0.745604 0.745515 0.745419 0.745315 0.745205 0.745086 0.74496
          0.744826 0.744685 0.744536 0.744378 0.744213 0.744039 0.743857 0.743666 0.743466 0.743258 0.743041 0.742814
          0.742579 0.742334 0.742079 0.741814 0.741539 0.741255 0.740959 0.740653 0.740337 0.740009 0.73967 0.739319
          0.738956 0.738581 0.738194 0.737794 0.737381 0.736954 0.736514 0.736059 0.735591 0.735107 0.734608 0.734093
          0.733562 0.733014 0.732449 0.731867 0.731266 0.730647 0.730016 0.729447 0.72978 0.740372 0.852361
        </DataArray>
        <DataArray type="Float32" Name="saturation_n" NumberOfComponents="1" format="ascii">
          0.653341 0.613098 0.58343 0.559867 0.540348 0.523726 0.509286 0.49655 0.485183 0.474939 0.465631 0.457117
          0.449282 0.442036 0.435304 0.429025 0.423147 0.417628 0.41243 0.407522 0.402877 0.398471 0.394282 0.390294
          0.38649 0.382856 0.379379 0.376047 0.372851 0.36978 0.366828 0.363986 0.361247 0.358605 0.356055 0.35359
          0.351207 0.348901 0.346668 0.344504 0.342405 0.340369 0.338391 0.33647 0.334603 0.332788 0.331021 0.329302
          0.327627 0.325996 0.324405 0.322855 0.321343 0.319867 0.318426 0.31702 0.315646 0.314303 0.312991 0.311709
          0.310454 0.309228 0.308027 0.306853 0.305703 0.304577 0.303475 0.302395 0.301337 0.3003 0.299285 0.298289
          0.297313 0.296355 0.295417 0.294496 0.293593 0.292707 0.291838 0.290984 0.290147 0.289325 0.288518 0.287726
          0.286949 0.286185 0.285435 0.284699 0.283976 0.283265 0.282568 0.281882 0.281209 0.280547 0.279897 0.279259
          0.278632 0.278015 0.27741 0.276815 0.27623 0.275655 0.275091 0.274536 0.273991 0.273456 0.27293 0.272413
          0.271905 0.271406 0.270916 0.270435 0.269962 0.269498 0.269041 0.268593 0.268154 0.267722 0.267298 0.266881
          0.266473 0.266072 0.265678 0.265292 0.264914 0.264542 0.264178 0.263821 0.263471 0.263127 0.262791 0.262461
          0.262139 0.261823 0.261513 0.261211 0.260914 0.260625 0.260341 0.260064 0.259794 0.25953 0.259272 0.25902
          0.258774 0.258535 0.258302 0.258075 0.257854 0.257639 0.25743 0.257227 0.25703 0.256839 0.256654 0.256475
          0.256302 0.256135 0.255974 0.255818 0.255669 0.255525 0.255388 0.255256 0.25513 0.25501 0.254896 0.254787
          0.254685 0.254589 0.254498 0.254414 0.254335 0.254262 0.254196 0.254135 0.254081 0.254032 0.25399 0.253954
          0.253923 0.2539 0.253882 0.253871 0.253865 0.253867 0.253874 0.253888 0.253909 0.253936 0.25397 0.25401
          0.254057 0.254111 0.254172 0.25424 0.254314 0.254396 0.254485 0.254581 0.254685 0.254796 0.254914 0.25504
          0.255174 0.255315 0.255464 0.255622 0.255787 0.255961 0.256143 0.256334 0.256534 0.256742 0.256959 0.257186
          0.257421 0.257666 0.257921 0.258186 0.25846 0.258745 0.259041 0.259347 0.259663 0.259991 0.26033 0.260681
          0.261044 0.261419 0.261806 0.262206 0.262619 0.263046 0.263486 0.263941 0.264409 0.264893 0.265392 0.265907
          0.266438 0.266986 0.267551 0.268133 0.268734 0.269353 0.269984 0.270553 0.27022 0.259628 0.147639
        </DataArray>
        <DataArray type="Float32" Name="relativePerm_w" NumberOfComponents="1" format="ascii">
          0.0393775 0.0540358 0.066902 0.0784707 0.0890144 0.0987137 0.107699 0.116071 0.123907 0.131272 0.138217 0.144788
          0.15102 0.156946 0.162593 0.167985 0.173144 0.178086 0.18283 0.187389 0.191776 0.196003 0.20008 0.204018
          0.207824 0.211506 0.215072 0.218528 0.22188 0.225134 0.228295 0.231367 0.234354 0.237262 0.240093 0.242851
          0.245539 0.248161 0.250718 0.253215 0.255653 0.258034 0.260361 0.262636 0.264861 0.267038 0.269168 0.271253
          0.273294 0.275294 0.277253 0.279173 0.281054 0.282899 0.284709 0.286483 0.288225 0.289933 0.29161 0.293256
          0.294872 0.296459 0.298018 0.299549 0.301053 0.302531 0.303984 0.305411 0.306815 0.308194 0.30955 0.310884
          0.312196 0.313486 0.314754 0.316003 0.31723 0.318438 0.319627 0.320796 0.321947 0.323079 0.324194 0.325291
          0.32637 0.327433 0.328479 0.329508 0.330522 0.331519 0.332502 0.333468 0.33442 0.335357 0.336279 0.337187
          0.338081 0.338961 0.339828 0.34068 0.34152 0.342346 0.343159 0.34396 0.344748 0.345523 0.346286 0.347037
          0.347776 0.348503 0.349219 0.349922 0.350615 0.351296 0.351965 0.352624 0.353271 0.353908 0.354534 0.355149
          0.355754 0.356348 0.356932 0.357506 0.358069 0.358622 0.359165 0.359698 0.360221 0.360735 0.361238 0.361732
          0.362216 0.362691 0.363156 0.363611 0.364057 0.364494 0.364921 0.365339 0.365748 0.366148 0.366538 0.36692
          0.367292 0.367655 0.368009 0.368354 0.36869 0.369017 0.369335 0.369644 0.369944 0.370235 0.370517 0.370791
          0.371055 0.371311 0.371557 0.371795 0.372024 0.372244 0.372455 0.372657 0.37285 0.373034 0.373209 0.373375
          0.373533 0.373681 0.37382 0.37395 0.37407 0.374182 0.374284 0.374378 0.374461 0.374536 0.374601 0.374657
          0.374703 0.37474 0.374767 0.374785 0.374793 0.374791 0.374779 0.374757 0.374726 0.374684 0.374632 0.37457
          0.374497 0.374414 0.374321 0.374217 0.374102 0.373976 0.37384 0.373692 0.373533 0.373363 0.373181 0.372988
          0.372783 0.372566 0.372337 0.372096 0.371843 0.371577 0.371298 0.371006 0.370702 0.370384 0.370052 0.369707
          0.369348 0.368975 0.368587 0.368185 0.367768 0.367336 0.366888 0.366425 0.365946 0.36545 0.364938 0.364408
          0.363862 0.363298 0.362715 0.362115 0.361495 0.360856 0.360198 0.359519 0.35882 0.358099 0.357357 0.356593
          0.355806 0.354995 0.354161 0.353302 0.352417 0.351508 0.350583 0.34975 0.350237 0.365999 0.568078
        </DataArray>
        <DataArray type="Float32" Name="relativePerm_n" NumberOfComponents="1" format="ascii">
          0.476948 0.422546 0.384159 0.354766 0.331178 0.311649 0.295109 0.280854 0.268398 0.257392 0.247573 0.238744
          0.230749 0.223467 0.216798 0.210661 0.204992 0.199733 0.194839 0.190271 0.185993 0.181978 0.1782 0.174637
          0.17127 0.168083 0.165059 0.162187 0.159453 0.156849 0.154363 0.151988 0.149716 0.14754 0.145454 0.143452
          0.141529 0.139679 0.137899 0.136184 0.134531 0.132936 0.131397 0.129909 0.128471 0.127081 0.125734 0.12443
          0.123167 0.121942 0.120753 0.1196 0.11848 0.117393 0.116336 0.115308 0.114308 0.113336 0.112389 0.111467
          0.11057 0.109695 0.108842 0.108011 0.1072 0.106409 0.105638 0.104885 0.104149 0.103431 0.10273 0.102044
          0.101375 0.10072 0.10008 0.0994545 0.0988426 0.098244 0.0976584 0.0970854 0.0965247 0.0959758 0.0954385 0.0949124
          0.0943973 0.0938928 0.0933987 0.0929147 0.0924406 0.091976 0.0915208 0.0910747 0.0906375 0.090209 0.089789 0.0893772
          0.0889736 0.0885779 0.08819 0.0878096 0.0874366 0.0870709 0.0867123 0.0863607 0.0860159 0.0856777 0.0853461 0.0850209
          0.0847021 0.0843894 0.0840827 0.083782 0.0834872 0.0831981 0.0829147 0.0826368 0.0823644 0.0820973 0.0818355 0.081579
          0.0813275 0.0810811 0.0808396 0.0806031 0.0803713 0.0801443 0.079922 0.0797044 0.0794913 0.0792827 0.0790785 0.0788788
          0.0786833 0.0784922 0.0783053 0.0781226 0.0779441 0.0777697 0.0775993 0.077433 0.0772707 0.0771123 0.0769578 0.0768072
          0.0766605 0.0765176 0.0763784 0.0762431 0.0761115 0.0759835 0.0758593 0.0757388 0.0756219 0.0755086 0.075399 0.0752929
          0.0751905 0.0750916 0.0749962 0.0749044 0.0748161 0.0747314 0.0746502 0.0745725 0.0744983 0.0744276 0.0743604 0.0742967
          0.0742365 0.0741798 0.0741266 0.0740769 0.0740308 0.0739881 0.0739491 0.0739135 0.0738815 0.0738531 0.0738282 0.073807
          0.0737893 0.0737753 0.073765 0.0737583 0.0737553 0.073756 0.0737605 0.0737688 0.0737808 0.0737967 0.0738165 0.0738402
          0.0738679 0.0738995 0.0739352 0.0739749 0.0740187 0.0740667 0.074119 0.0741755 0.0742363 0.0743015 0.0743711 0.0744453
          0.074524 0.0746074 0.0746955 0.0747884 0.0748861 0.0749888 0.0750966 0.0752094 0.0753275 0.075451 0.0755798 0.0757142
          0.0758542 0.076 0.0761516 0.0763092 0.076473 0.0766431 0.0768196 0.0770027 0.0771924 0.0773891 0.0775929 0.0778039
          0.0780223 0.0782484 0.0784823 0.0787242 0.0789745 0.0792333 0.0795008 0.0797774 0.0800633 0.0803588 0.0806642 0.0809798
          0.081306 0.0816432 0.0819916 0.0823517 0.0827238 0.0831081 0.0835009 0.0838556 0.0836479 0.0771714 0.0245635
        </DataArray>
        <DataArray type="Float32" Name="porosity" NumberOfComponents="1" format="ascii">
          0.558 0.558 0.558 0.558 0.558 0.558 0.558 0.558 0.558 0.558 0.558 0.558
          0.558 0.558 0.558 0.558 0.558 0.558 0.558 0.558 0.558 0.558 0.558 0.558
          0.558 0.558 0.558 0.558 0.558 0.558 0.558 0.558 0.558 0.558 0.558 0.558
          0.558 0.558 0.558 0.558 0.558 0.558 0.558 0.558 0.558 0.558 0.558 0.558
          0.558 0.558 0.558 0.558 0.558 0.558 0.558 0.558 0.558 0.558 0.558 0.558
          0.558 0.558 0.558 0.558 0.558 0.558 0.558 0.558 0.558 0.558 0.558 0.558
          0.558 0.558 0.558 0.558 0.558 0.558 0.558 0.558 0.558 0.558 0.558 0.558
          0.558 0.558 0.558 0.558 0.558 0.558 0.558 0.558 0.558 0.558 0.558 0.558
          0.558 0.558 0.558 0.558 0.558 0.558 0.558 0.558 0.558 0.558 0.558 0.558
          0.558 0.558 0.558 0.558 0.558 0.558 0.558 0.558 0.558 0.558 0.558 0.558
          0.558 0.558 0.558 0.558 0.558 0.558 0.558 0.558 0.558 0.558 0.558 0.558
          0.558 0.558 0.558 0.558 0.558 0.558 0.558 0.558 0.558 0.558 0.558 0.558
          0.558 0.558 0.558 0.558 0.558 0.558 0.558 0.558 0.558 0.558 0.558 0.558
          0.558 0.558 0.558 0.558 0.558 0.558 0.558 0.558 0.558 0.558 0.558 0.558
          0.558 0.558 0.558 0.558 0.558 0.558 0.558 0.558 0.558 0.558 0.558 0.558
          0.558 0.558 0.558 0.558 0.558 0.558 0.558 0.558 0.558 0.558 0.558 0.558
          0.558 0.558 0.558 0.558 0.558 0.558 0.558 0.558 0.558 0.558 0.558 0.558
          0.558 0.558 0.558 0.558 0.558 0.558 0.558 0.558 0.558 0.558 0.558 0.558
          0.558 0.558 0.558 0.558 0.558 0.558 0.558 0.558 0.558 0.558 0.558 0.558
          0.558 0.558 0.558 0.558 0.558 0.558 0.558 0.558 0.558 0.558 0.558 0.558
          0.558 0.558 0.558 0.558 0.558 0.558 0.558 0.558 0.558 0.558 0.558
        </DataArray>
        <DataArray type="Float32" Name="filterVelocity_w" NumberOfComponents="1" format="ascii">
          0.000136935 0.000354322 0.000609705 0.000894082 0.00118768 0.00148559 0.00178573 0.00208696 0.00238859 0.00269015 0.00299132 0.00329187
          0.00359164 0.00389049 0.00418835 0.00448515 0.00478084 0.0050754 0.00536881 0.00566107 0.00595216 0.0062421 0.0065309 0.00681855
          0.00710508 0.00739051 0.00767485 0.00795811 0.00824032 0.0085215 0.00880167 0.00908084 0.00935904 0.00963628 0.0099126 0.010188
          0.0104625 0.0107361 0.0110089 0.0112808 0.011552 0.0118223 0.0120918 0.0123606 0.0126286 0.0128959 0.0131624 0.0134283
          0.0136935 0.013958 0.0142218 0.014485 0.0147476 0.0150095 0.0152709 0.0155316 0.0157918 0.0160514 0.0163105 0.016569
          0.016827 0.0170844 0.0173414 0.0175978 0.0178538 0.0181093 0.0183643 0.0186188 0.0188729 0.0191266 0.0193798 0.0196326
          0.019885 0.020137 0.0203886 0.0206397 0.0208906 0.021141 0.0213911 0.0216408 0.0218901 0.0221391 0.0223878 0.0226361
          0.0228841 0.0231318 0.0233792 0.0236263 0.023873 0.0241195 0.0243657 0.0246116 0.0248572 0.0251026 0.0253477 0.0255925
          0.025837 0.0260814 0.0263254 0.0265693 0.0268129 0.0270563 0.0272994 0.0275423 0.027785 0.0280275 0.0282698 0.0285119
          0.0287538 0.0289955 0.0292369 0.0294783 0.0297194 0.0299603 0.0302011 0.0304417 0.0306821 0.0309224 0.0311625 0.0314024
          0.0316422 0.0318818 0.0321213 0.0323607 0.0325999 0.0328389 0.0330779 0.0333167 0.0335553 0.0337939 0.0340323 0.0342706
          0.0345087 0.0347468 0.0349847 0.0352225 0.0354603 0.0356979 0.0359354 0.0361728 0.0364101 0.0366473 0.0368844 0.0371214
          0.0373584 0.0375952 0.037832 0.0380686 0.0383052 0.0385417 0.0387781 0.0390145 0.0392507 0.0394869 0.039723 0.0399591
          0.040195 0.0404309 0.0406667 0.0409025 0.0411382 0.0413738 0.0416093 0.0418448 0.0420802 0.0423156 0.0425509 0.0427861
          0.0430213 0.0432564 0.0434914 0.0437264 0.0439613 0.0441962 0.044431 0.0446657 0.0449004 0.045135 0.0453695 0.045604
          0.0458384 0.0460728 0.0463071 0.0465413 0.0467754 0.0470095 0.0472435 0.0474775 0.0477113 0.0479451 0.0481788 0.0484124
          0.048646 0.0488794 0.0491128 0.0493461 0.0495793 0.0498123 0.0500453 0.0502782 0.050511 0.0507436 0.0509762 0.0512086
          0.0514409 0.051673 0.051905 0.0521369 0.0523686 0.0526002 0.0528316 0.0530629 0.0532939 0.0535248 0.0537555 0.0539859
          0.0542162 0.0544462 0.054676 0.0549056 0.0551349 0.055364 0.0555927 0.0558212 0.0560493 0.0562772 0.0565047 0.0567318
          0.0569586 0.057185 0.057411 0.0576365 0.0578616 0.0580862 0.0583104 0.058534 0.058757 0.0589795 0.0592013 0.0594226
          0.0596431 0.059863 0.0600821 0.0603004 0.0605179 0.0607345 0.0609502 0.0611646 0.0613754 0.0615657 0.061652
        </DataArray>
        <DataArray type="Float32" Name="filterVelocity_n" NumberOfComponents="1" format="ascii">
          0.324808 0.324975 0.325299 0.325609 0.32591 0.326204 0.326495 0.326785 0.327074 0.327363 0.327653 0.327946
          0.328241 0.328539 0.328841 0.329146 0.329455 0.329768 0.330086 0.330407 0.330734 0.331065 0.331401 0.331742
          0.332088 0.332439 0.332795 0.333156 0.333523 0.333894 0.334272 0.334654 0.335042 0.335436 0.335835 0.33624
          0.33665 0.337066 0.337488 0.337916 0.338349 0.338788 0.339233 0.339684 0.34014 0.340603 0.341071 0.341546
          0.342027 0.342513 0.343006 0.343506 0.344011 0.344522 0.34504 0.345565 0.346095 0.346632 0.347176 0.347726
          0.348283 0.348846 0.349416 0.349992 0.350576 0.351166 0.351763 0.352367 0.352978 0.353597 0.354222 0.354854
          0.355494 0.356141 0.356795 0.357457 0.358126 0.358802 0.359487 0.360179 0.360879 0.361586 0.362302 0.363025
          0.363757 0.364496 0.365244 0.366001 0.366765 0.367538 0.36832 0.36911 0.36991 0.370717 0.371534 0.37236
          0.373195 0.374039 0.374893 0.375756 0.376629 0.377511 0.378403 0.379305 0.380217 0.381139 0.382071 0.383013
          0.383966 0.38493 0.385904 0.38689 0.387886 0.388894 0.389912 0.390943 0.391984 0.393038 0.394103 0.395181
          0.396271 0.397373 0.398487 0.399615 0.400755 0.401908 0.403075 0.404255 0.405449 0.406656 0.407878 0.409114
          0.410364 0.411629 0.412909 0.414203 0.415514 0.416839 0.418181 0.419539 0.420912 0.422303 0.42371 0.425134
          0.426576 0.428035 0.429512 0.431008 0.432522 0.434054 0.435606 0.437177 0.438768 0.44038 0.442011 0.443664
          0.445337 0.447032 0.448749 0.450489 0.452251 0.454036 0.455845 0.457678 0.459535 0.461417 0.463325 0.465258
          0.467218 0.469205 0.471219 0.47326 0.475331 0.47743 0.479559 0.481718 0.483908 0.48613 0.488384 0.49067
          0.49299 0.495344 0.497733 0.500158 0.502619 0.505117 0.507654 0.510229 0.512844 0.5155 0.518198 0.520938
          0.523722 0.52655 0.529424 0.532345 0.535314 0.538332 0.541401 0.54452 0.547693 0.55092 0.554203 0.557542
          0.560941 0.564399 0.567919 0.571502 0.57515 0.578865 0.582649 0.586504 0.590431 0.594432 0.598511 0.602669
          0.606908 0.611231 0.615641 0.62014 0.62473 0.629416 0.634198 0.639082 0.64407 0.649166 0.654373 0.659694
          0.665134 0.670697 0.676388 0.68221 0.688168 0.694268 0.700514 0.706912 0.713468 0.720188 0.727078 0.734145
          0.741396 0.748839 0.756481 0.764331 0.772397 0.78069 0.789218 0.797994 0.807034 0.816403 0.821155
        </DataArray>
        <DataArray type="Float32" Name="temperature" NumberOfComponents="1" format="ascii">
          299.75 299.75 299.75 299.75 299.75 299.75 299.75 299.75 299.75 299.75 299.75 299.75
          299.75 299.75 299.75 299.75 299.75 299.75 299.75 299.75 299.75 299.75 299.75 299.75
          299.75 299.75 299.75 299.75 299.75 299.75 299.75 299.75 299.75 299.75 299.75 299.75
          299.75 299.75 299.75 299.75 299.75 299.75 299.75 299.75 299.75 299.75 299.75 299.75
          299.75 299.75 299.75 299.75 299.75 299.75 299.75 299.75 299.75 299.75 299.75 299.75
          299.75 299.75 299.75 299.75 299.75 299.75 299.75 299.75 299.75 299.75 299.75 299.75
          299.75 299.75 299.75 299.75 299.75 299.75 299.75 299.75 299.75 299.75 299.75 299.75
          299.75 299.75 299.75 299.75 299.75 299.75 299.75 299.75 299.75 299.75 299.75 299.75
          299.75 299.75 299.75 299.75 299.75 299.75 299.75 299.75 299.75 299.75 299.75 299.75
          299.75 299.75 299.75 299.75 299.75 299.75 299.75 299.75 299.75 299.75 299.75 299.75
          299.75 299.75 299.75 299.75 299.75 299.75 299.75 299.75 299.75 299.75 299.75 299.75
          299.75 299.75 299.75 299.75 299.75 299.75 299.75 299.75 299.75 299.75 299.75 299.75
          299.75 299.75 299.75 299.75 299.75 299.75 299.75 299.75 299.75 299.75 299.75 299.75
          299.75 299.75 299.75 299.75 299.75 299.75 299.75 299.75 299.75 299.75 299.75 299.75
          299.75 299.75 299.75 299.75 299.75 299.75 299.75 299.75 299.75 299.75 299.75 299.75
          299.75 299.75 299.75 299.75 299.75 299.75 299.75 299.75 299.75 299.75 299.75 299.75
          299.75 299.75 299.75 299.75 299.75 299.75 299.75 299.75 299.75 299.75 299.75 299.75
          299.75 299.75 299.75 299.75 299.75 299.75 299.75 299.75 299.75 299.75 299.75 299.75
          299.75 299.75 299.75 299.75 299.75 299.75 299.75 299.75 299.75 299.75 299.75 299.75
          299.75 299.75 299.75 299.75 299.75 299.75 299.75 299.75 299.75 299.75 299.75 299.75
          299.75 299.75 299.75 299.75 299.75 299.75 299.75 299.75 299.75 299.75 299.75
        </DataArray>
      </PointData>
      <Points>
        <DataArray type="Float32" Name="Coordinates" NumberOfComponents="3" format="ascii">
          0 0 0 0.4 0 0 0.8 0 0 1.2 0 0
          1.6 0 0 2 0 0 2.4 0 0 2.8 0 0
          3.2 0 0 3.6 0 0 4 0 0 4.4 0 0
          4.8 0 0 5.2 0 0 5.6 0 0 6 0 0
          6.4 0 0 6.8 0 0 7.2 0 0 7.6 0 0
          8 0 0 8.4 0 0 8.8 0 0 9.2 0 0
          9.6 0 0 10 0 0 10.4 0 0 10.8 0 0
          11.2 0 0 11.6 0 0 12 0 0 12.4 0 0
          12.8 0 0 13.2 0 0 13.6 0 0 14 0 0
          14.4 0 0 14.8 0 0 15.2 0 0 15.6 0 0
          16 0 0 16.4 0 0 16.8 0 0 17.2 0 0
          17.6 0 0 18 0 0 18.4 0 0 18.8 0 0
          19.2 0 0 19.6 0 0 20 0 0 20.4 0 0
          20.8 0 0 21.2 0 0 21.6 0 0 22 0 0
          22.4 0 0 22.8 0 0 23.2 0 0 23.6 0 0
          24 0 0 24.4 0 0 24.8 0 0 25.2 0 0
          25.6 0 0 26 0 0 26.4 0 0 26.8 0 0
          27.2 0 0 27.6 0 0 28 0 0 28.4 0 0
          28.8 0 0 29.2 0 0 29.6 0 0 30 0 0
          30.4 0 0 30.8 0 0 31.2 0 0 31.6 0 0
          32 0 0 32.4 0 0 32.8 0 0 33.2 0 0
          33.6 0 0 34 0 0 34.4 0 0 34.8 0 0
          35.2 0 0 35.6 0 0 36 0 0 36.4 0 0
          36.8 0 0 37.2 0 0 37.6 0 0 38 0 0
          38.4 0 0 38.8 0 0 39.2 0 0 39.6 0 0
          40 0 0 40.4 0 0 40.8 0 0 41.2 0 0
          41.6 0 0 42 0 0 42.4 0 0 42.8 0 0
          43.2 0 0 43.6 0 0 44 0 0 44.4 0 0
          44.8 0 0 45.2 0 0 45.6 0 0 46 0 0
          46.4 0 0 46.8 0 0 47.2 0 0 47.6 0 0
          48 0 0 48.4 0 0 48.8 0 0 49.2 0 0
          49.6 0 0 50 0 0 50.4 0 0 50.8 0 0
          51.2 0 0 51.6 0 0 52 0 0 52.4 0 0
          52.8 0 0 53.2 0 0 53.6 0 0 54 0 0
          54.4 0 0 54.8 0 0 55.2 0 0 55.6 0 0
          56 0 0 56.4 0 0 56.8 0 0 57.2 0 0
          57.6 0 0 58 0 0 58.4 0 0 58.8 0 0
          59.2 0 0 59.6 0 0 60 0 0 60.4 0 0
          60.8 0 0 61.2 0 0 61.6 0 0 62 0 0
          62.4 0 0 62.8 0 0 63.2 0 0 63.6 0 0
          64 0 0 64.4 0 0 64.8 0 0 65.2 0 0
          65.6 0 0 66 0 0 66.4 0 0 66.8 0 0
          67.2 0 0 67.6 0 0 68 0 0 68.4 0 0
          68.8 0 0 69.2 0 0 69.6 0 0 70 0 0