<?xml version="1.0"?>
<VTKFile type="PolyData" version="0.1" byte_order="LittleEndian">
  <PolyData>
    <Piece NumberOfLines="250" NumberOfPoints="251">
      <PointData Scalars="pressure_wetting">
        <DataArray type="Float32" Name="pressure_wetting" NumberOfComponents="1" format="ascii">
          261187 261162 261107 261032 260942 260838 260724 260599 260465 260323 260172 260014
          259849 259676 259497 259311 259119 258921 258717 258507 258291 258069 257842 257610
          257372 257129 256881 256628 256370 256107 255839 255567 255289 255007 254720 254429
          254133 253832 253527 253218 252904 252586 252263 251936 251605 251270 250930 250586
          250238 249886 249530 249170 248806 248437 248065 247689 247308 246924 246536 246144
          245748 245348 244944 244536 244124 243709 243290 242867 242440 242009 241575 241137
          240695 240249 239800 239347 238890 238429 237965 237497 237026 236550 236071 235589
          235102 234613 234119 233622 233121 232616 232108 231597 231081 230562 230040 229513
          228984 228450 227913 227373 226828 226281 225729 225174 224616 224054 223488 222918
          222345 221769 221189 220605 220018 219427 218832 218234 217633 217027 216418 215806
          215190 214570 213947 213320 212689 212055 211417 210776 210131 209482 208830 208174
          207514 206851 206184 205513 204839 204161 203479 202794 202105 201412 200716 200015
          199312 198604 197892 197177 196458 195736 195009 194279 193545 192807 192065 191320
          190570 189817 189060 188299 187534 186766 185993 185217 184436 183652 182863 182071
          181275 180474 179670 178862 178049 177233 176412 175588 174759 173926 173089 172248
          171402 170553 169699 168841 167979 167112 166241 165366 164487 163603 162714 161822
          160925 160023 159117 158206 157291 156372 155447 154519 153585 152647 151704 150756
          149804 148847 147885 146918 145946 144969 143988 143001 142009 141012 140010 139003
          137991 136973 135950 134922 133888 132849 131804 130754 129699 128637 127570 126497
          125419 124334 123244 122147 121045 119936 118821 117700 116572 115438 114298 113150
          111997 110836 109669 108494 107313 106124 104928 103725 102515 101305 100164
        </DataArray>
        <DataArray type="Float32" Name="pressure_nonwetting" NumberOfComponents="1" format="ascii">
          263696 263609 263510 263402 263284 263159 263025 262883 262734 262579 262416 262247
          262071 261890 261702 261508 261308 261103 260892 260676 260454 260227 259995 259757
          259515 259267 259015 258757 258495 258228 257956 257680 257399 257113 256823 256529
          256229 255926 255618 255306 254989 254668 254343 254014 253680 253342 253000 252654
          252304 251950 251592 251230 250863 250493 250119 249741 249358 248972 248582 248188
          247791 247389 246984 246574 246161 245744 245324 244899 244471 244039 243603 243163
          242720 242273 241823 241368 240910 240448 239983 239514 239041 238565 238085 237601
          237114 236623 236128 235630 235128 234622 234113 233601 233084 232565 232041 231514
          230983 230449 229911 229370 228825 228276 227724 227168 226609 226046 225479 224909
          224336 223758 223178 222593 222005 221414 220819 220220 219618 219012 218402 217789
          217172 216552 215928 215301 214670 214035 213397 212755 212109 211460 210807 210151
          209491 208827 208160 207488 206814 206135 205453 204767 204078 203385 202688 201987
          201283 200575 199863 199148 198429 197706 196979 196248 195514 194776 194034 193288
          192539 191785 191028 190267 189502 188733 187960 187183 186403 185618 184830 184037
          183241 182440 181636 180827 180015 179198 178377 177553 176724 175891 175054 174213
          173367 172518 171664 170806 169943 169077 168206 167331 166451 165568 164679 163787
          162890 161988 161082 160172 159257 158337 157413 156484 155551 154613 153670 152723
          151771 150814 149852 148885 147914 146937 145956 144969 143978 142981 141980 140973
          139961 138943 137921 136893 135860 134821 133777 132727 131672 130611 129544 128472
          127394 126310 125220 124124 123022 121914 120800 119679 118552 117419 116279 115133
          113980 112820 111653 110480 109299 108111 106916 105714 104503 103271 101875
        </DataArray>
        <DataArray type="Float32" Name="density_wetting" NumberOfComponents="1" format="ascii">
          1000 1000 1000 1000 1000 1000 1000 1000 1000 1000 1000 1000
          1000 1000 1000 1000 1000 1000 1000 1000 1000 1000 1000 1000
          1000 1000 1000 1000 1000 1000 1000 1000 1000 1000 1000 1000
          1000 1000 1000 1000 1000 1000 1000 1000 1000 1000 1000 1000
          1000 1000 1000 1000 1000 1000 1000 1000 1000 1000 1000 1000
          1000 1000 1000 1000 1000 1000 1000 1000 1000 1000 1000 1000
          1000 1000 1000 1000 1000 1000 1000 1000 1000 1000 1000 1000
          1000 1000 1000 1000 1000 1000 1000 1000 1000 1000 1000 1000
          1000 1000 1000 1000 1000 1000 1000 1000 1000 1000 1000 1000
          1000 1000 1000 1000 1000 1000 1000 1000 1000 1000 1000 1000
          1000 1000 1000 1000 1000 1000 1000 1000 1000 1000 1000 1000
          1000 1000 1000 1000 1000 1000 1000 1000 1000 1000 1000 1000
          1000 1000 1000 1000 1000 1000 1000 1000 1000 1000 1000 1000
          1000 1000 1000 1000 1000 1000 1000 1000 1000 1000 1000 1000
          1000 1000 1000 1000 1000 1000 1000 1000 1000 1000 1000 1000
          1000 1000 1000 1000 1000 1000 1000 1000 1000 1000 1000 1000
          1000 1000 1000 1000 1000 1000 1000 1000 1000 1000 1000 1000
          1000 1000 1000 1000 1000 1000 1000 1000 1000 1000 1000 1000
          1000 1000 1000 1000 1000 1000 1000 1000 1000 1000 1000 1000
          1000 1000 1000 1000 1000 1000 1000 1000 1000 1000 1000 1000
          1000 1000 1000 1000 1000 1000 1000 1000 1000 1000 1000
        </DataArray>
        <DataArray type="Float32" Name="density_nonwetting" NumberOfComponents="1" format="ascii">
          3.06414 3.06312 3.06198 3.06072 3.05936 3.05789 3.05634 3.05469 3.05296 3.05115 3.04927 3.0473
          3.04526 3.04315 3.04097 3.03871 3.03639 3.03401 3.03156 3.02904 3.02647 3.02383 3.02113 3.01837
          3.01555 3.01268 3.00974 3.00675 3.0037 3.0006 2.99744 2.99423 2.99097 2.98765 2.98428 2.98085
          2.97738 2.97385 2.97027 2.96664 2.96296 2.95924 2.95546 2.95163 2.94775 2.94383 2.93986 2.93584
          2.93177 2.92765 2.92349 2.91928 2.91502 2.91072 2.90637 2.90198 2.89753 2.89305 2.88852 2.88394
          2.87932 2.87465 2.86994 2.86518 2.86038 2.85554 2.85065 2.84572 2.84074 2.83572 2.83066 2.82555
          2.8204 2.81521 2.80997 2.80469 2.79937 2.794 2.78859 2.78314 2.77765 2.77211 2.76654 2.76091
          2.75525 2.74955 2.7438 2.73801 2.73218 2.7263 2.72039 2.71443 2.70843 2.70239 2.69631 2.69018
          2.68402 2.67781 2.67156 2.66527 2.65893 2.65256 2.64614 2.63969 2.63319 2.62665 2.62006 2.61344
          2.60677 2.60006 2.59332 2.58653 2.57969 2.57282 2.5659 2.55895 2.55195 2.54491 2.53783 2.5307
          2.52354 2.51633 2.50908 2.50179 2.49445 2.48708 2.47966 2.4722 2.4647 2.45716 2.44957 2.44194
          2.43427 2.42656 2.41881 2.41101 2.40317 2.39528 2.38736 2.37939 2.37138 2.36332 2.35523 2.34709
          2.3389 2.33068 2.32241 2.31409 2.30573 2.29733 2.28889 2.2804 2.27187 2.26329 2.25467 2.246
          2.23729 2.22854 2.21974 2.21089 2.202 2.19307 2.18409 2.17506 2.16599 2.15687 2.14771 2.1385
          2.12925 2.11995 2.1106 2.1012 2.09176 2.08227 2.07274 2.06316 2.05352 2.04385 2.03412 2.02434
          2.01452 2.00465 1.99473 1.98476 1.97474 1.96467 1.95455 1.94438 1.93416 1.92389 1.91357 1.9032
          1.89277 1.8823 1.87177 1.86119 1.85056 1.83987 1.82913 1.81834 1.8075 1.7966 1.78564 1.77463
          1.76357 1.75245 1.74127 1.73004 1.71875 1.7074 1.696 1.68454 1.67302 1.66144 1.6498 1.6381
          1.62634 1.61452 1.60263 1.59069 1.57868 1.56661 1.55448 1.54228 1.53002 1.51769 1.5053 1.49284
          1.48031 1.46772 1.45505 1.44232 1.42951 1.41664 1.40369 1.39067 1.37757 1.3644 1.35116 1.33784
          1.32444 1.31096 1.29741 1.28377 1.27005 1.25625 1.24236 1.22839 1.21432 1.20001 1.18379
        </DataArray>
        <DataArray type="Float32" Name="saturation_wetting" NumberOfComponents="1" format="ascii">
          0.345309 0.385528 0.41519 0.438751 0.458269 0.474892 0.489334 0.502072 0.513442 0.523691 0.533003 0.541523
          0.549363 0.556615 0.563353 0.569639 0.575523 0.581048 0.586252 0.591166 0.595817 0.600229 0.604423 0.608416
          0.612226 0.615865 0.619347 0.622684 0.625885 0.62896 0.631916 0.634763 0.637505 0.640151 0.642705 0.645173
          0.647559 0.649868 0.652104 0.654272 0.656373 0.658412 0.660392 0.662315 0.664185 0.666002 0.667771 0.669492
          0.671169 0.672802 0.674394 0.675946 0.67746 0.678937 0.680379 0.681787 0.683162 0.684506 0.685818 0.687102
          0.688357 0.689585 0.690786 0.691961 0.693112 0.694238 0.695341 0.696421 0.697479 0.698516 0.699532 0.700528
          0.701504 0.702462 0.7034 0.704321 0.705224 0.70611 0.706979 0.707832 0.708669 0.709491 0.710297 0.711089
          0.711866 0.712629 0.713379 0.714114 0.714837 0.715547 0.716244 0.716929 0.717601 0.718262 0.718911 0.719549
          0.720175 0.720791 0.721395 0.72199 0.722573 0.723147 0.72371 0.724264 0.724808 0.725342 0.725867 0.726383
          0.726889 0.727387 0.727876 0.728356 0.728827 0.72929 0.729745 0.730192 0.73063 0.731061 0.731483 0.731898
          0.732305 0.732705 0.733096 0.733481 0.733858 0.734228 0.734591 0.734946 0.735295 0.735636 0.735971 0.736299
          0.73662 0.736934 0.737241 0.737542 0.737837 0.738125 0.738406 0.738681 0.73895 0.739212 0.739468 0.739718
          0.739961 0.740199 0.74043 0.740655 0.740874 0.741087 0.741293 0.741494 0.741689 0.741878 0.742061 0.742237
          0.742408 0.742573 0.742732 0.742886 0.743033 0.743174 0.74331 0.743439 0.743563 0.74368 0.743792 0.743898
          0.743998 0.744092 0.74418 0.744262 0.744339 0.744409 0.744473 0.744531 0.744583 0.744629 0.744669 0.744703
          0.74473 0.744752 0.744767 0.744776 0.744778 0.744774 0.744764 0.744748 0.744724 0.744695 0.744658 0.744615
          0.744566 0.744509 0.744446 0.744376 0.744298 0.744214 0.744122 0.744024 0.743918 0.743804 0.743683 0.743555
          0.743418 0.743274 0.743122 0.742962 0.742794 0.742618 0.742433 0.74224 0.742038 0.741827 0.741607 0.741379
          0.741141 0.740893 0.740636 0.740369 0.740092 0.739805 0.739507 0.739199 0.73888 0.73855 0.738209 0.737856
          0.737492 0.737115 0.736726 0.736324 0.735909 0.735481 0.735039 0.734583 0.734113 0.733628 0.733128 0.732613
          0.732081 0.731532 0.730967 0.730384 0.729783 0.729164 0.728537 0.728006 0.72874 0.743586 0.887167
        </DataArray>
        <DataArray type="Float32" Name="saturation_nonwetting" NumberOfComponents="1" format="ascii">
          0.654691 0.614472 0.58481 0.561249 0.541731 0.525108 0.510666 0.497928 0.486558 0.476309 0.466997 0.458477
          0.450637 0.443385 0.436647 0.430361 0.424477 0.418952 0.413748 0.408834 0.404183 0.399771 0.395577 0.391584
          0.387774 0.384135 0.380653 0.377316 0.374115 0.37104 0.368084 0.365237 0.362495 0.359849 0.357295 0.354827
          0.352441 0.350132 0.347896 0.345728 0.343627 0.341588 0.339608 0.337685 0.335815 0.333998 0.332229 0.330508
          0.328831 0.327198 0.325606 0.324054 0.32254 0.321063 0.319621 0.318213 0.316838 0.315494 0.314182 0.312898
          0.311643 0.310415 0.309214 0.308039 0.306888 0.305762 0.304659 0.303579 0.302521 0.301484 0.300468 0.299472
          0.298496 0.297538 0.2966 0.295679 0.294776 0.29389 0.293021 0.292168 0.291331 0.290509 0.289703 0.288911
          0.288134 0.287371 0.286621 0.285886 0.285163 0.284453 0.283756 0.283071 0.282399 0.281738 0.281089 0.280451
          0.279825 0.279209 0.278605 0.27801 0.277427 0.276853 0.27629 0.275736 0.275192 0.274658 0.274133 0.273617
          0.273111 0.272613 0.272124 0.271644 0.271173 0.27071 0.270255 0.269808 0.26937 0.268939 0.268517 0.268102
          0.267695 0.267295 0.266904 0.266519 0.266142 0.265772 0.265409 0.265054 0.264705 0.264364 0.264029 0.263701
          0.26338 0.263066 0.262759 0.262458 0.262163 0.261875 0.261594 0.261319 0.26105 0.260788 0.260532 0.260282
          0.260039 0.259801 0.25957 0.259345 0.259126 0.258913 0.258707 0.258506 0.258311 0.258122 0.257939 0.257763
          0.257592 0.257427 0.257268 0.257114 0.256967 0.256826 0.25669 0.256561 0.256437 0.25632 0.256208 0.256102
          0.256002 0.255908 0.25582 0.255738 0.255661 0.255591 0.255527 0.255469 0.255417 0.255371 0.255331 0.255297
          0.25527 0.255248 0.255233 0.255224 0.255222 0.255226 0.255236 0.255252 0.255276 0.255305 0.255342 0.255385
          0.255434 0.255491 0.255554 0.255624 0.255702 0.255786 0.255878 0.255976 0.256082 0.256196 0.256317 0.256445
          0.256582 0.256726 0.256878 0.257038 0.257206 0.257382 0.257567 0.25776 0.257962 0.258173 0.258393 0.258621
          0.258859 0.259107 0.259364 0.259631 0.259908 0.260195 0.260493 0.260801 0.26112 0.26145 0.261791 0.262144
          0.262508 0.262885 0.263274 0.263676 0.264091 0.264519 0.264961 0.265416 0.265887 0.266372 0.266872 0.267387
          0.267919 0.268468 0.269033 0.269616 0.270217 0.270836 0.271463 0.271994 0.27126 0.256414 0.112833
        </DataArray>
        <DataArray type="Float32" Name="relativePerm_wetting" NumberOfComponents="1" format="ascii">
          0.038938 0.0534837 0.0662623 0.0777576 0.0882377 0.0978811 0.106817 0.115144 0.122941 0.13027 0.137183 0.143724
          0.149929 0.155831 0.161456 0.166828 0.171967 0.176892 0.181619 0.186163 0.190535 0.194749 0.198814 0.202739
          0.206534 0.210205 0.213761 0.217207 0.22055 0.223795 0.226947 0.23001 0.23299 0.235889 0.238713 0.241463
          0.244145 0.246759 0.24931 0.2518 0.254231 0.256607 0.258928 0.261197 0.263416 0.265586 0.26771 0.26979
          0.271826 0.27382 0.275773 0.277688 0.279564 0.281404 0.283208 0.284977 0.286713 0.288417 0.290088 0.291729
          0.293341 0.294923 0.296476 0.298003 0.299502 0.300975 0.302423 0.303846 0.305244 0.306619 0.307971 0.3093
          0.310607 0.311892 0.313156 0.3144 0.315623 0.316826 0.31801 0.319175 0.320321 0.321449 0.322559 0.323651
          0.324726 0.325784 0.326825 0.32785 0.328859 0.329852 0.33083 0.331792 0.33274 0.333672 0.33459 0.335493
          0.336383 0.337258 0.33812 0.338968 0.339803 0.340625 0.341434 0.34223 0.343013 0.343784 0.344543 0.345289
          0.346024 0.346746 0.347457 0.348156 0.348844 0.349521 0.350186 0.35084 0.351483 0.352115 0.352737 0.353348
          0.353948 0.354538 0.355117 0.355686 0.356245 0.356793 0.357332 0.35786 0.358379 0.358888 0.359387 0.359876
          0.360356 0.360826 0.361287 0.361738 0.362179 0.362612 0.363035 0.363448 0.363853 0.364248 0.364634 0.36501
          0.365378 0.365737 0.366086 0.366427 0.366758 0.367081 0.367395 0.367699 0.367995 0.368282 0.36856 0.368829
          0.369089 0.36934 0.369582 0.369816 0.37004 0.370256 0.370462 0.37066 0.370849 0.371029 0.371199 0.371361
          0.371514 0.371658 0.371793 0.371919 0.372035 0.372143 0.372241 0.37233 0.37241 0.37248 0.372541 0.372593
          0.372635 0.372668 0.372691 0.372705 0.372709 0.372703 0.372687 0.372662 0.372626 0.372581 0.372525 0.372459
          0.372383 0.372297 0.3722 0.372092 0.371974 0.371844 0.371704 0.371553 0.371391 0.371218 0.371033 0.370837
          0.370629 0.370409 0.370177 0.369933 0.369677 0.369408 0.369127 0.368832 0.368525 0.368205 0.367871 0.367524
          0.367163 0.366788 0.366398 0.365994 0.365576 0.365142 0.364693 0.364228 0.363748 0.363251 0.362738 0.362209
          0.361662 0.361097 0.360515 0.359914 0.359295 0.358657 0.357999 0.357321 0.356623 0.355904 0.355164 0.354402
          0.353617 0.352809 0.351978 0.351122 0.350241 0.349336 0.34842 0.347646 0.348717 0.370884 0.646709
        </DataArray>
        <DataArray type="Float32" Name="relativePerm_nonwetting" NumberOfComponents="1" format="ascii">
          0.478818 0.42436 0.385911 0.356463 0.332827 0.313253 0.296673 0.282381 0.269891 0.258852 0.249003 0.240144
          0.232122 0.224814 0.21812 0.21196 0.206268 0.200989 0.196075 0.191487 0.187191 0.183159 0.179364 0.175785
          0.172403 0.169201 0.166164 0.163278 0.160532 0.157915 0.155418 0.153032 0.150749 0.148563 0.146467 0.144455
          0.142523 0.140664 0.138876 0.137153 0.135492 0.13389 0.132343 0.130849 0.129404 0.128007 0.126654 0.125344
          0.124075 0.122844 0.12165 0.120491 0.119367 0.118274 0.117212 0.11618 0.115176 0.114199 0.113248 0.112322
          0.11142 0.110542 0.109685 0.10885 0.108036 0.107242 0.106467 0.105711 0.104972 0.104251 0.103547 0.102859
          0.102186 0.101529 0.100887 0.100259 0.0996445 0.0990437 0.0984559 0.0978808 0.0973179 0.0967671 0.0962278 0.0956999
          0.095183 0.0946767 0.0941809 0.0936953 0.0932196 0.0927535 0.0922968 0.0918493 0.0914108 0.090981 0.0905597 0.0901468
          0.089742 0.0893452 0.0889562 0.0885748 0.0882009 0.0878343 0.0874748 0.0871223 0.0867767 0.0864378 0.0861055 0.0857796
          0.0854601 0.0851468 0.0848396 0.0845384 0.0842431 0.0839536 0.0836697 0.0833914 0.0831187 0.0828513 0.0825892 0.0823324
          0.0820807 0.0818341 0.0815925 0.0813559 0.081124 0.080897 0.0806747 0.080457 0.0802439 0.0800354 0.0798313 0.0796317
          0.0794365 0.0792455 0.0790588 0.0788764 0.0786981 0.078524 0.078354 0.078188 0.078026 0.077868 0.077714 0.0775639
          0.0774176 0.0772752 0.0771366 0.0770018 0.0768708 0.0767435 0.0766199 0.0765001 0.0763839 0.0762713 0.0761624 0.0760571
          0.0759554 0.0758574 0.0757629 0.0756719 0.0755845 0.0755007 0.0754204 0.0753437 0.0752705 0.0752008 0.0751346 0.075072
          0.0750129 0.0749573 0.0749053 0.0748568 0.0748118 0.0747704 0.0747325 0.0746982 0.0746675 0.0746404 0.0746169 0.074597
          0.0745807 0.0745681 0.0745592 0.074554 0.0745525 0.0745547 0.0745607 0.0745705 0.0745842 0.0746017 0.0746231 0.0746485
          0.0746778 0.0747111 0.0747485 0.0747899 0.0748356 0.0748854 0.0749394 0.0749978 0.0750604 0.0751275 0.0751991 0.0752752
          0.0753559 0.0754412 0.0755313 0.0756262 0.075726 0.0758308 0.0759407 0.0760556 0.0761759 0.0763015 0.0764325 0.076569
          0.0767113 0.0768593 0.0770132 0.0771731 0.0773392 0.0775115 0.0776903 0.0778757 0.0780678 0.0782669 0.078473 0.0786864
          0.0789072 0.0791356 0.0793719 0.0796163 0.079869 0.0801301 0.0804001 0.080679 0.0809673 0.0812652 0.081573 0.0818909
          0.0822194 0.0825588 0.0829095 0.0832718 0.0836461 0.0840324 0.084425 0.084758 0.0842976 0.0752567 0.0141934
        </DataArray>
        <DataArray type="Float32" Name="porosity" NumberOfComponents="1" format="ascii">
          0.558 0.558 0.558 0.558 0.558 0.558 0.558 0.558 0.558 0.558 0.558 0.558
          0.558 0.558 0.558 0.558 0.558 0.558 0.558 0.558 0.558 0.558 0.558 0.558
          0.558 0.558 0.558 0.558 0.558 0.558 0.558 0.558 0.558 0.558 0.558 0.558
          0.558 0.558 0.558 0.558 0.558 0.558 0.558 0.558 0.558 0.558 0.558 0.558
          0.558 0.558 0.558 0.558 0.558 0.558 0.558 0.558 0.558 0.558 0.558 0.558
          0.558 0.558 0.558 0.558 0.558 0.558 0.558 0.558 0.558 0.558 0.558 0.558
          0.558 0.558 0.558 0.558 0.558 0.558 0.558 0.558 0.558 0.558 0.558 0.558
          0.558 0.558 0.558 0.558 0.558 0.558 0.558 0.558 0.558 0.558 0.558 0.558
          0.558 0.558 0.558 0.558 0.558 0.558 0.558 0.558 0.558 0.558 0.558 0.558
          0.558 0.558 0.558 0.558 0.558 0.558 0.558 0.558 0.558 0.558 0.558 0.558
          0.558 0.558 0.558 0.558 0.558 0.558 0.558 0.558 0.558 0.558 0.558 0.558
          0.558 0.558 0.558 0.558 0.558 0.558 0.558 0.558 0.558 0.558 0.558 0.558
          0.558 0.558 0.558 0.558 0.558 0.558 0.558 0.558 0.558 0.558 0.558 0.558
          0.558 0.558 0.558 0.558 0.558 0.558 0.558 0.558 0.558 0.558 0.558 0.558
          0.558 0.558 0.558 0.558 0.558 0.558 0.558 0.558 0.558 0.558 0.558 0.558
          0.558 0.558 0.558 0.558 0.558 0.558 0.558 0.558 0.558 0.558 0.558 0.558
          0.558 0.558 0.558 0.558 0.558 0.558 0.558 0.558 0.558 0.558 0.558 0.558
          0.558 0.558 0.558 0.558 0.558 0.558 0.558 0.558 0.558 0.558 0.558 0.558
          0.558 0.558 0.558 0.558 0.558 0.558 0.558 0.558 0.558 0.558 0.558 0.558
          0.558 0.558 0.558 0.558 0.558 0.558 0.558 0.558 0.558 0.558 0.558 0.558
          0.558 0.558 0.558 0.558 0.558 0.558 0.558 0.558 0.558 0.558 0.558
        </DataArray>
        <DataArray type="Float32" Name="filterVelocity_wetting" NumberOfComponents="1" format="ascii">
          0.000135304 0.000277713 0.000566175 0.000860351 0.0011578 0.00145711 0.00175741 0.00205807 0.00235867 0.00265891 0.00295855 0.00325742
          0.0035554 0.00385239 0.00414832 0.00444314 0.00473683 0.00502935 0.0053207 0.00561087 0.00589987 0.00618769 0.00647435 0.00675986
          0.00704423 0.00732749 0.00760964 0.00789071 0.00817071 0.00844967 0.0087276 0.00900453 0.00928047 0.00955545 0.00982948 0.0101026
          0.0103748 0.0106461 0.0109165 0.0111861 0.0114549 0.0117228 0.01199 0.0122563 0.0125219 0.0127868 0.0130509 0.0133143
          0.013577 0.013839 0.0141003 0.014361 0.014621 0.0148804 0.0151392 0.0153974 0.015655 0.0159119 0.0161684 0.0164242
          0.0166796 0.0169343 0.0171886 0.0174423 0.0176955 0.0179483 0.0182005 0.0184523 0.0187036 0.0189544 0.0192048 0.0194548
          0.0197043 0.0199534 0.0202021 0.0204504 0.0206983 0.0209457 0.0211928 0.0214396 0.0216859 0.0219319 0.0221775 0.0224228
          0.0226677 0.0229123 0.0231566 0.0234006 0.0236442 0.0238875 0.0241305 0.0243732 0.0246156 0.0248578 0.0250996 0.0253412
          0.0255825 0.0258235 0.0260642 0.0263047 0.026545 0.026785 0.0270247 0.0272642 0.0275035 0.0277425 0.0279813 0.0282199
          0.0284583 0.0286965 0.0289344 0.0291722 0.0294097 0.029647 0.0298842 0.0301211 0.0303579 0.0305945 0.0308309 0.0310671
          0.0313031 0.031539 0.0317747 0.0320103 0.0322456 0.0324809 0.0327159 0.0329508 0.0331856 0.0334202 0.0336547 0.033889
          0.0341232 0.0343572 0.0345911 0.0348249 0.0350586 0.0352921 0.0355255 0.0357588 0.0359919 0.036225 0.0364579 0.0366907
          0.0369234 0.0371559 0.0373884 0.0376208 0.037853 0.0380852 0.0383172 0.0385491 0.038781 0.0390127 0.0392444 0.0394759
          0.0397073 0.0399387 0.04017 0.0404011 0.0406322 0.0408632 0.0410941 0.0413249 0.0415556 0.0417862 0.0420168 0.0422472
          0.0424776 0.0427079 0.0429381 0.0431682 0.0433982 0.0436281 0.043858 0.0440877 0.0443174 0.044547 0.0447765 0.0450059
          0.0452352 0.0454644 0.0456935 0.0459226 0.0461515 0.0463804 0.0466091 0.0468378 0.0470663 0.0472947 0.0475231 0.0477513
          0.0479794 0.0482074 0.0484353 0.0486631 0.0488907 0.0491182 0.0493456 0.0495729 0.0498 0.050027 0.0502538 0.0504805
          0.050707 0.0509334 0.0511596 0.0513856 0.0516115 0.0518372 0.0520626 0.0522879 0.052513 0.0527378 0.0529625 0.0531869
          0.053411 0.0536349 0.0538586 0.054082 0.0543051 0.0545278 0.0547503 0.0549725 0.0551943 0.0554158 0.055637 0.0558577
          0.056078 0.056298 0.0565175 0.0567365 0.0569551 0.0571731 0.0573907 0.0576077 0.0578241 0.0580399 0.0582551 0.0584697
          0.0586835 0.0588967 0.059109 0.0593206 0.0595313 0.0597412 0.0599501 0.0601576 0.060361 0.0605404 0.0606198
        </DataArray>
        <DataArray type="Float32" Name="filterVelocity_nonwetting" NumberOfComponents="1" format="ascii">
          0.326491 0.326655 0.326975 0.327279 0.327574 0.327863 0.328149 0.328433 0.328716 0.329 0.329285 0.329572
          0.329862 0.330155 0.330451 0.330751 0.331055 0.331363 0.331675 0.331992 0.332314 0.33264 0.332971 0.333307
          0.333649 0.333995 0.334347 0.334704 0.335066 0.335433 0.335807 0.336185 0.336569 0.336959 0.337354 0.337755
          0.338162 0.338574 0.338992 0.339416 0.339846 0.340282 0.340723 0.341171 0.341624 0.342084 0.342549 0.343021
          0.343499 0.343983 0.344473 0.344969 0.345472 0.345981 0.346496 0.347018 0.347546 0.348081 0.348622 0.34917
          0.349725 0.350286 0.350854 0.351428 0.35201 0.352598 0.353193 0.353796 0.354405 0.355022 0.355645 0.356276
          0.356914 0.35756 0.358212 0.358873 0.359541 0.360216 0.360899 0.36159 0.362289 0.362995 0.36371 0.364432
          0.365163 0.365902 0.366649 0.367405 0.368168 0.368941 0.369722 0.370512 0.37131 0.372118 0.372934 0.37376
          0.374594 0.375438 0.376291 0.377154 0.378027 0.378909 0.379801 0.380702 0.381614 0.382536 0.383468 0.384411
          0.385364 0.386328 0.387303 0.388288 0.389285 0.390292 0.391312 0.392342 0.393384 0.394438 0.395504 0.396582
          0.397672 0.398775 0.39989 0.401018 0.402159 0.403313 0.40448 0.405661 0.406856 0.408064 0.409286 0.410523
          0.411774 0.41304 0.41432 0.415616 0.416927 0.418254 0.419596 0.420955 0.42233 0.423721 0.425129 0.426554
          0.427997 0.429457 0.430936 0.432432 0.433947 0.435481 0.437033 0.438606 0.440198 0.44181 0.443443 0.445096
          0.446771 0.448467 0.450185 0.451925 0.453688 0.455474 0.457284 0.459118 0.460976 0.462859 0.464767 0.466701
          0.468662 0.470649 0.472664 0.474706 0.476777 0.478877 0.481006 0.483166 0.485356 0.487578 0.489832 0.492118
          0.494438 0.496792 0.499181 0.501605 0.504066 0.506564 0.5091 0.511675 0.514289 0.516944 0.51964 0.522379
          0.525162 0.527988 0.530861 0.53378 0.536747 0.539762 0.542828 0.545945 0.549114 0.552338 0.555617 0.558953
          0.562347 0.5658 0.569315 0.572893 0.576536 0.580245 0.584023 0.58787 0.59179 0.595784 0.599854 0.604003
          0.608233 0.612547 0.616946 0.621433 0.626012 0.630684 0.635454 0.640324 0.645296 0.650376 0.655566 0.660869
          0.66629 0.671833 0.677502 0.683301 0.689236 0.69531 0.701529 0.707898 0.714424 0.721112 0.727968 0.734998
          0.742211 0.749613 0.757211 0.765015 0.773033 0.781273 0.789747 0.798464 0.807443 0.816766 0.821531
        </DataArray>
        <DataArray type="Float32" Name="temperature" NumberOfComponents="1" format="ascii">
          299.75 299.75 299.75 299.75 299.75 299.75 299.75 299.75 299.75 299.75 299.75 299.75
          299.75 299.75 299.75 299.75 299.75 299.75 299.75 299.75 299.75 299.75 299.75 299.75
          299.75 299.75 299.75 299.75 299.75 299.75 299.75 299.75 299.75 299.75 299.75 299.75
          299.75 299.75 299.75 299.75 299.75 299.75 299.75 299.75 299.75 299.75 299.75 299.75
          299.75 299.75 299.75 299.75 299.75 299.75 299.75 299.75 299.75 299.75 299.75 299.75
          299.75 299.75 299.75 299.75 299.75 299.75 299.75 299.75 299.75 299.75 299.75 299.75
          299.75 299.75 299.75 299.75 299.75 299.75 299.75 299.75 299.75 299.75 299.75 299.75
          299.75 299.75 299.75 299.75 299.75 299.75 299.75 299.75 299.75 299.75 299.75 299.75
          299.75 299.75 299.75 299.75 299.75 299.75 299.75 299.75 299.75 299.75 299.75 299.75
          299.75 299.75 299.75 299.75 299.75 299.75 299.75 299.75 299.75 299.75 299.75 299.75
          299.75 299.75 299.75 299.75 299.75 299.75 299.75 299.75 299.75 299.75 299.75 299.75
          299.75 299.75 299.75 299.75 299.75 299.75 299.75 299.75 299.75 299.75 299.75 299.75
          299.75 299.75 299.75 299.75 299.75 299.75 299.75 299.75 299.75 299.75 299.75 299.75
          299.75 299.75 299.75 299.75 299.75 299.75 299.75 299.75 299.75 299.75 299.75 299.75
          299.75 299.75 299.75 299.75 299.75 299.75 299.75 299.75 299.75 299.75 299.75 299.75
          299.75 299.75 299.75 299.75 299.75 299.75 299.75 299.75 299.75 299.75 299.75 299.75
          299.75 299.75 299.75 299.75 299.75 299.75 299.75 299.75 299.75 299.75 299.75 299.75
          299.75 299.75 299.75 299.75 299.75 299.75 299.75 299.75 299.75 299.75 299.75 299.75
          299.75 299.75 299.75 299.75 299.75 299.75 299.75 299.75 299.75 299.75 299.75 299.75
          299.75 299.75 299.75 299.75 299.75 299.75 299.75 299.75 299.75 299.75 299.75 299.75
          299.75 299.75 299.75 299.75 299.75 299.75 299.75 299.75 299.75 299.75 299.75
        </DataArray>
      </PointData>
      <Points>
        <DataArray type="Float32" Name="Coordinates" NumberOfComponents="3" format="ascii">
          0 0 0 0.4 0 0 0.8 0 0 1.2 0 0
          1.6 0 0 2 0 0 2.4 0 0 2.8 0 0
          3.2 0 0 3.6 0 0 4 0 0 4.4 0 0
          4.8 0 0 5.2 0 0 5.6 0 0 6 0 0
          6.4 0 0 6.8 0 0 7.2 0 0 7.6 0 0
          8 0 0 8.4 0 0 8.8 0 0 9.2 0 0
          9.6 0 0 10 0 0 10.4 0 0 10.8 0 0
          11.2 0 0 11.6 0 0 12 0 0 12.4 0 0
          12.8 0 0 13.2 0 0 13.6 0 0 14 0 0
          14.4 0 0 14.8 0 0 15.2 0 0 15.6 0 0
          16 0 0 16.4 0 0 16.8 0 0 17.2 0 0
          17.6 0 0 18 0 0 18.4 0 0 18.8 0 0
          19.2 0 0 19.6 0 0 20 0 0 20.4 0 0
          20.8 0 0 21.2 0 0 21.6 0 0 22 0 0
          22.4 0 0 22.8 0 0 23.2 0 0 23.6 0 0
          24 0 0 24.4 0 0 24.8 0 0 25.2 0 0
          25.6 0 0 26 0 0 26.4 0 0 26.8 0 0
          27.2 0 0 27.6 0 0 28 0 0 28.4 0 0
          28.8 0 0 29.2 0 0 29.6 0 0 30 0 0
          30.4 0 0 30.8 0 0 31.2 0 0 31.6 0 0
          32 0 0 32.4 0 0 32.8 0 0 33.2 0 0
          33.6 0 0 34 0 0 34.4 0 0 34.8 0 0
          35.2 0 0 35.6 0 0 36 0 0 36.4 0 0
          36.8 0 0 37.2 0 0 37.6 0 0 38 0 0
          38.4 0 0 38.8 0 0 39.2 0 0 39.6 0 0
          40 0 0 40.4 0 0 40.8 0 0 41.2 0 0
          41.6 0 0 42 0 0 42.4 0 0 42.8 0 0
          43.2 0 0 43.6 0 0 44 0 0 44.4 0 0
          44.8 0 0 45.2 0 0 45.6 0 0 46 0 0
          46.4 0 0 46.8 0 0 47.2 0 0 47.6 0 0
          48 0 0 48.4 0 0 48.8 0 0 49.2 0 0
          49.6 0 0 50 0 0 50.4 0 0 50.8 0 0
          51.2 0 0 51.6 0 0 52 0 0 52.4 0 0
          52.8 0 0 53.2 0 0 53.6 0 0 54 0 0
          54.4 0 0 54.8 0 0 55.2 0 0 55.6 0 0
          56 0 0 56.4 0 0 56.8 0 0 57.2 0 0
          57.6 0 0 58 0 0 58.4 0 0 58.8 0 0
          59.2 0 0 59.6 0 0 60 0 0 60.4 0 0
          60.8 0 0 61.2 0 0 61.6 0 0 62 0 0
          62.4 0 0 62.8 0 0 63.2 0 0 63.6 0 0
          64 0 0 64.4 0 0 64.8 0 0 65.2 0 0
          65.6 0 0 66 0 0 66.4 0 0 66.8 0 0