<?xml version="1.0"?>
<VTKFile type="PolyData" version="0.1" byte_order="LittleEndian">
  <PolyData>
    <Piece NumberOfLines="250" NumberOfPoints="251">
      <PointData Scalars="pressure_w">
        <DataArray type="Float32" Name="pressure_w" NumberOfComponents="1" format="ascii">
          261630 261606 261551 261476 261386 261282 261168 261043 260909 260767 260616 260458
          260293 260120 259941 259755 259563 259365 259161 258950 258735 258513 258286 258054
          257816 257573 257325 257072 256814 256550 256282 256010 255732 255450 255163 254871
          254575 254275 253969 253660 253346 253028 252705 252378 252047 251711 251371 251027
          250679 250327 249971 249610 249246 248877 248505 248128 247748 247363 246975 246582
          246186 245786 245382 244974 244562 244146 243727 243303 242876 242445 242011 241572
          241130 240684 240234 239781 239324 238863 238398 237930 237458 236982 236503 236020
          235533 235043 234549 234051 233550 233045 232537 232025 231509 230989 230466 229940
          229409 228875 228338 227797 227252 226704 226152 225596 225037 224475 223908 223338
          222765 222188 221607 221023 220435 219843 219248 218650 218047 217441 216832 216219
          215602 214981 214357 213730 213099 212464 211825 211183 210537 209888 209235 208578
          207918 207254 206586 205914 205239 204560 203878 203192 202502 201808 201111 200410
          199705 198996 198284 197568 196848 196125 195397 194666 193931 193192 192450 191703
          190953 190199 189440 188678 187913 187143 186369 185592 184810 184025 183235 182442
          181644 180843 180037 179228 178414 177597 176775 175949 175119 174285 173447 172604
          171758 170907 170052 169193 168329 167461 166589 165712 164832 163946 163057 162163
          161264 160361 159454 158542 157625 156704 155778 154848 153913 152973 152029 151080
          150126 149167 148203 147235 146261 145283 144300 143311 142318 141319 140316 139307
          138293 137273 136249 135219 134183 133142 132096 131044 129986 128923 127854 126779
          125699 124612 123520 122422 121317 120206 119089 117966 116837 115701 114558 113409
          112253 111090 109921 108744 107560 106370 105171 103966 102754 101539 100374
        </DataArray>
        <DataArray type="Float32" Name="pressure_n" NumberOfComponents="1" format="ascii">
          264139 264052 263954 263845 263728 263602 263468 263327 263178 263022 262860 262690
          262515 262333 262145 261952 261752 261547 261336 261119 260898 260670 260438 260201
          259958 259710 259458 259200 258938 258671 258399 258123 257842 257556 257266 256971
          256672 256368 256060 255748 255431 255110 254785 254455 254121 253784 253441 253095
          252745 252391 252032 251670 251303 250933 250558 250180 249797 249411 249021 248627
          248229 247827 247421 247012 246598 246181 245760 245335 244907 244474 244038 243599
          243155 242708 242257 241802 241344 240882 240416 239946 239473 238996 238516 238032
          237544 237053 236558 236059 235557 235051 234541 234028 233512 232991 232467 231940
          231409 230874 230336 229794 229248 228699 228146 227590 227030 226467 225900 225329
          224755 224177 223596 223011 222422 221830 221234 220635 220032 219425 218815 218201
          217584 216963 216339 215710 215079 214443 213804 213161 212515 211865 211212 210554
          209894 209229 208561 207889 207214 206534 205851 205165 204475 203781 203083 202381
          201676 200967 200255 199538 198818 198094 197367 196635 195900 195161 194418 193671
          192920 192166 191408 190646 189879 189110 188336 187558 186776 185990 185201 184407
          183610 182808 182002 181193 180379 179561 178740 177914 177084 176249 175411 174569
          173722 172871 172016 171157 170293 169425 168553 167677 166796 165911 165021 164127
          163229 162326 161418 160506 159590 158669 157743 156813 155878 154939 153995 153046
          152092 151133 150170 149202 148228 147250 146267 145279 144286 143288 142284 141276
          140262 139243 138219 137189 136154 135114 134068 133016 131959 130896 129828 128754
          127674 126588 125496 124398 123294 122184 121068 119945 118816 117681 116539 115390
          114235 113073 111904 110729 109546 108356 107159 105954 104741 103511 102161
        </DataArray>
        <DataArray type="Float32" Name="density_w" NumberOfComponents="1" format="ascii">
          1000 1000 1000 1000 1000 1000 1000 1000 1000 1000 1000 1000
          1000 1000 1000 1000 1000 1000 1000 1000 1000 1000 1000 1000
          1000 1000 1000 1000 1000 1000 1000 1000 1000 1000 1000 1000
          1000 1000 1000 1000 1000 1000 1000 1000 1000 1000 1000 1000
          1000 1000 1000 1000 1000 1000 1000 1000 1000 1000 1000 1000
          1000 1000 1000 1000 1000 1000 1000 1000 1000 1000 1000 1000
          1000 1000 1000 1000 1000 1000 1000 1000 1000 1000 1000 1000
          1000 1000 1000 1000 1000 1000 1000 1000 1000 1000 1000 1000
          1000 1000 1000 1000 1000 1000 1000 1000 1000 1000 1000 1000
          1000 1000 1000 1000 1000 1000 1000 1000 1000 1000 1000 1000
          1000 1000 1000 1000 1000 1000 1000 1000 1000 1000 1000 1000
          1000 1000 1000 1000 1000 1000 1000 1000 1000 1000 1000 1000
          1000 1000 1000 1000 1000 1000 1000 1000 1000 1000 1000 1000
          1000 1000 1000 1000 1000 1000 1000 1000 1000 1000 1000 1000
          1000 1000 1000 1000 1000 1000 1000 1000 1000 1000 1000 1000
          1000 1000 1000 1000 1000 1000 1000 1000 1000 1000 1000 1000
          1000 1000 1000 1000 1000 1000 1000 1000 1000 1000 1000 1000
          1000 1000 1000 1000 1000 1000 1000 1000 1000 1000 1000 1000
          1000 1000 1000 1000 1000 1000 1000 1000 1000 1000 1000 1000
          1000 1000 1000 1000 1000 1000 1000 1000 1000 1000 1000 1000
          1000 1000 1000 1000 1000 1000 1000 1000 1000 1000 1000
        </DataArray>
        <DataArray type="Float32" Name="density_n" NumberOfComponents="1" format="ascii">
          3.06929 3.06827 3.06713 3.06587 3.06451 3.06304 3.06149 3.05985 3.05812 3.05631 3.05442 3.05245
          3.05041 3.0483 3.04612 3.04387 3.04155 3.03916 3.03671 3.0342 3.03162 3.02898 3.02628 3.02352
          3.0207 3.01782 3.01489 3.0119 3.00885 3.00575 3.00259 2.99938 2.99611 2.99279 2.98942 2.98599
          2.98252 2.97899 2.97541 2.97178 2.9681 2.96437 2.96059 2.95676 2.95288 2.94895 2.94498 2.94096
          2.93689 2.93277 2.9286 2.92439 2.92013 2.91583 2.91148 2.90708 2.90264 2.89815 2.89361 2.88903
          2.88441 2.87974 2.87502 2.87027 2.86546 2.86061 2.85572 2.85079 2.84581 2.84078 2.83572 2.83061
          2.82545 2.82025 2.81501 2.80973 2.8044 2.79903 2.79362 2.78817 2.78267 2.77713 2.77155 2.76592
          2.76025 2.75454 2.74879 2.743 2.73716 2.73128 2.72536 2.7194 2.7134 2.70735 2.70126 2.69513
          2.68896 2.68275 2.67649 2.67019 2.66385 2.65747 2.65105 2.64459 2.63808 2.63153 2.62494 2.61831
          2.61164 2.60493 2.59817 2.59137 2.58453 2.57765 2.57073 2.56377 2.55676 2.54971 2.54262 2.53549
          2.52832 2.5211 2.51385 2.50655 2.4992 2.49182 2.4844 2.47693 2.46942 2.46187 2.45427 2.44664
          2.43896 2.43123 2.42347 2.41566 2.40781 2.39992 2.39199 2.38401 2.37599 2.36792 2.35981 2.35166
          2.34347 2.33523 2.32695 2.31863 2.31026 2.30185 2.29339 2.28489 2.27635 2.26776 2.25913 2.25045
          2.24173 2.23296 2.22415 2.21529 2.20639 2.19745 2.18845 2.17942 2.17033 2.1612 2.15203 2.14281
          2.13354 2.12422 2.11486 2.10545 2.096 2.0865 2.07695 2.06735 2.05771 2.04801 2.03827 2.02848
          2.01864 2.00876 1.99882 1.98884 1.9788 1.96872 1.95858 1.9484 1.93816 1.92788 1.91754 1.90715
          1.89671 1.88622 1.87568 1.86508 1.85443 1.84373 1.83297 1.82216 1.8113 1.80038 1.78941 1.77838
          1.7673 1.75616 1.74497 1.73372 1.72241 1.71104 1.69962 1.68814 1.6766 1.665 1.65334 1.64162
          1.62984 1.618 1.6061 1.59413 1.58211 1.57002 1.55786 1.54564 1.53336 1.52101 1.50859 1.49611
          1.48356 1.47094 1.45826 1.4455 1.43267 1.41977 1.4068 1.39376 1.38064 1.36745 1.35418 1.34083
          1.32741 1.31391 1.30033 1.28666 1.27292 1.25909 1.24518 1.23118 1.21709 1.2028 1.1871
        </DataArray>
        <DataArray type="Float32" Name="saturation_w" NumberOfComponents="1" format="ascii">
          0.345692 0.385907 0.415563 0.439119 0.458633 0.475252 0.48969 0.502426 0.513793 0.52404 0.53335 0.541867
          0.549705 0.556955 0.56369 0.569974 0.575855 0.581379 0.586581 0.591493 0.596142 0.600552 0.604744 0.608736
          0.612543 0.616181 0.619662 0.622997 0.626197 0.62927 0.632226 0.635071 0.637812 0.640457 0.64301 0.645476
          0.647862 0.65017 0.652405 0.654571 0.656672 0.65871 0.66069 0.662612 0.664481 0.666298 0.668066 0.669787
          0.671463 0.673095 0.674687 0.676238 0.677752 0.679228 0.68067 0.682077 0.683452 0.684795 0.686108 0.687391
          0.688646 0.689873 0.691074 0.692249 0.693399 0.694525 0.695628 0.696708 0.697766 0.698803 0.699819 0.700815
          0.701791 0.702748 0.703687 0.704607 0.70551 0.706396 0.707265 0.708118 0.708955 0.709777 0.710584 0.711375
          0.712153 0.712916 0.713665 0.714401 0.715124 0.715834 0.716531 0.717216 0.717889 0.71855 0.719199 0.719837
          0.720464 0.721079 0.721684 0.722278 0.722862 0.723436 0.724 0.724554 0.725098 0.725632 0.726158 0.726674
          0.727181 0.727679 0.728168 0.728648 0.72912 0.729584 0.730039 0.730486 0.730924 0.731355 0.731778 0.732193
          0.732601 0.733001 0.733393 0.733778 0.734156 0.734526 0.734889 0.735245 0.735594 0.735936 0.736271 0.7366
          0.736921 0.737236 0.737544 0.737845 0.73814 0.738429 0.738711 0.738986 0.739256 0.739519 0.739775 0.740026
          0.74027 0.740508 0.740739 0.740965 0.741185 0.741398 0.741606 0.741807 0.742003 0.742192 0.742376 0.742553
          0.742725 0.74289 0.74305 0.743204 0.743352 0.743494 0.74363 0.743761 0.743885 0.744004 0.744116 0.744223
          0.744324 0.744419 0.744508 0.744591 0.744668 0.744739 0.744804 0.744863 0.744916 0.744963 0.745004 0.745038
          0.745067 0.745089 0.745105 0.745115 0.745119 0.745116 0.745107 0.745091 0.745069 0.74504 0.745005 0.744963
          0.744915 0.744859 0.744797 0.744728 0.744652 0.744569 0.744478 0.744381 0.744276 0.744164 0.744044 0.743917
          0.743782 0.743639 0.743488 0.743329 0.743163 0.742988 0.742804 0.742612 0.742412 0.742202 0.741984 0.741756
          0.74152 0.741274 0.741018 0.740753 0.740477 0.740192 0.739896 0.739589 0.739272 0.738943 0.738604 0.738253
          0.73789 0.737514 0.737127 0.736727 0.736314 0.735888 0.735448 0.734994 0.734525 0.734042 0.733544 0.73303
          0.7325 0.731954 0.731391 0.73081 0.730211 0.729594 0.728965 0.728402 0.728763 0.739534 0.852284
        </DataArray>
        <DataArray type="Float32" Name="saturation_n" NumberOfComponents="1" format="ascii">
          0.654308 0.614093 0.584437 0.560881 0.541367 0.524748 0.51031 0.497574 0.486207 0.47596 0.46665 0.458133
          0.450295 0.443045 0.43631 0.430027 0.424145 0.418621 0.413419 0.408507 0.403858 0.399448 0.395256 0.391264
          0.387457 0.383819 0.380338 0.377003 0.373803 0.37073 0.367774 0.364929 0.362188 0.359543 0.35699 0.354524
          0.352138 0.34983 0.347595 0.345429 0.343328 0.34129 0.33931 0.337388 0.335519 0.333702 0.331934 0.330213
          0.328537 0.326905 0.325313 0.323762 0.322248 0.320772 0.31933 0.317923 0.316548 0.315205 0.313892 0.312609
          0.311354 0.310127 0.308926 0.307751 0.306601 0.305475 0.304372 0.303292 0.302234 0.301197 0.300181 0.299185
          0.298209 0.297252 0.296313 0.295393 0.29449 0.293604 0.292735 0.291882 0.291045 0.290223 0.289417 0.288625
          0.287847 0.287084 0.286335 0.285599 0.284876 0.284166 0.283469 0.282784 0.282111 0.28145 0.280801 0.280163
          0.279537 0.278921 0.278316 0.277722 0.277138 0.276564 0.276 0.275446 0.274902 0.274368 0.273842 0.273326
          0.272819 0.272321 0.271832 0.271352 0.27088 0.270416 0.269961 0.269514 0.269076 0.268645 0.268222 0.267807
          0.267399 0.266999 0.266607 0.266222 0.265844 0.265474 0.265111 0.264755 0.264406 0.264064 0.263729 0.2634
          0.263079 0.262764 0.262456 0.262154 0.26186 0.261571 0.261289 0.261014 0.260744 0.260481 0.260225 0.259974
          0.25973 0.259492 0.259261 0.259035 0.258815 0.258602 0.258394 0.258193 0.257997 0.257808 0.257624 0.257447
          0.257275 0.257109 0.25695 0.256796 0.256648 0.256506 0.25637 0.256239 0.256115 0.255996 0.255884 0.255777
          0.255676 0.255581 0.255492 0.255409 0.255332 0.255261 0.255196 0.255137 0.255084 0.255037 0.254996 0.254962
          0.254933 0.254911 0.254895 0.254885 0.254881 0.254884 0.254893 0.254909 0.254931 0.25496 0.254995 0.255037
          0.255085 0.255141 0.255203 0.255272 0.255348 0.255432 0.255522 0.255619 0.255724 0.255836 0.255956 0.256084
          0.256218 0.256361 0.256512 0.256671 0.256837 0.257013 0.257196 0.257388 0.257588 0.257798 0.258016 0.258244
          0.25848 0.258726 0.258982 0.259247 0.259523 0.259808 0.260104 0.260411 0.260728 0.261057 0.261396 0.261747
          0.26211 0.262486 0.262873 0.263273 0.263686 0.264112 0.264552 0.265006 0.265475 0.265958 0.266456 0.26697
          0.2675 0.268046 0.268609 0.26919 0.269789 0.270406 0.271035 0.271598 0.271237 0.260466 0.147716
        </DataArray>
        <DataArray type="Float32" Name="relativePerm_w" NumberOfComponents="1" format="ascii">
          0.0390623 0.0536356 0.0664348 0.0779469 0.0884414 0.0980974 0.107045 0.115382 0.123187 0.130524 0.137445 0.143992
          0.150204 0.156111 0.161741 0.167117 0.172261 0.17719 0.18192 0.186467 0.190843 0.19506 0.199127 0.203056
          0.206853 0.210527 0.214084 0.217533 0.220878 0.224124 0.227278 0.230343 0.233325 0.236226 0.239051 0.241803
          0.244486 0.247102 0.249655 0.252146 0.254579 0.256955 0.259278 0.261548 0.263768 0.26594 0.268066 0.270146
          0.272183 0.274178 0.276133 0.278049 0.279926 0.281767 0.283572 0.285343 0.28708 0.288785 0.290457 0.2921
          0.293712 0.295295 0.29685 0.298377 0.299878 0.301352 0.302801 0.304225 0.305624 0.307 0.308353 0.309683
          0.310991 0.312277 0.313542 0.314787 0.316011 0.317215 0.3184 0.319566 0.320714 0.321842 0.322953 0.324047
          0.325123 0.326182 0.327224 0.32825 0.32926 0.330255 0.331233 0.332197 0.333145 0.334078 0.334997 0.335902
          0.336792 0.337669 0.338532 0.339381 0.340217 0.34104 0.34185 0.342647 0.343432 0.344204 0.344963 0.345711
          0.346447 0.34717 0.347882 0.348583 0.349272 0.349949 0.350616 0.351271 0.351915 0.352549 0.353171 0.353783
          0.354384 0.354975 0.355556 0.356126 0.356686 0.357236 0.357776 0.358305 0.358825 0.359335 0.359836 0.360326
          0.360807 0.361278 0.36174 0.362192 0.362635 0.363069 0.363493 0.363908 0.364313 0.36471 0.365097 0.365475
          0.365844 0.366204 0.366555 0.366897 0.36723 0.367554 0.367868 0.368174 0.368472 0.36876 0.369039 0.369309
          0.369571 0.369823 0.370067 0.370301 0.370527 0.370744 0.370952 0.371151 0.371342 0.371523 0.371695 0.371859
          0.372013 0.372158 0.372294 0.372422 0.37254 0.372648 0.372748 0.372839 0.37292 0.372992 0.373055 0.373108
          0.373152 0.373186 0.373211 0.373226 0.373231 0.373227 0.373213 0.373189 0.373155 0.373111 0.373057 0.372993
          0.372918 0.372833 0.372738 0.372632 0.372515 0.372387 0.372249 0.3721 0.371939 0.371767 0.371584 0.371389
          0.371183 0.370965 0.370735 0.370492 0.370238 0.369971 0.369691 0.369399 0.369094 0.368775 0.368443 0.368097
          0.367738 0.367365 0.366977 0.366575 0.366158 0.365726 0.365279 0.364816 0.364338 0.363843 0.363332 0.362804
          0.362258 0.361696 0.361115 0.360517 0.359899 0.359263 0.358607 0.357931 0.357235 0.356518 0.355779 0.355019
          0.354236 0.35343 0.3526 0.351746 0.350868 0.349964 0.349046 0.348224 0.34875 0.364734 0.567913
        </DataArray>
        <DataArray type="Float32" Name="relativePerm_n" NumberOfComponents="1" format="ascii">
          0.478287 0.423859 0.385437 0.356011 0.332393 0.312835 0.296268 0.281989 0.269509 0.25848 0.24864 0.23979
          0.231776 0.224475 0.217788 0.211635 0.205949 0.200675 0.195766 0.191184 0.186893 0.182865 0.179075 0.1755
          0.172122 0.168924 0.16589 0.163008 0.160266 0.157652 0.155158 0.152775 0.150495 0.148312 0.146218 0.144209
          0.142279 0.140422 0.138636 0.136915 0.135257 0.133656 0.132111 0.130619 0.129176 0.12778 0.126429 0.125121
          0.123853 0.122624 0.121431 0.120274 0.119151 0.118059 0.116998 0.115967 0.114964 0.113989 0.113039 0.112114
          0.111213 0.110336 0.10948 0.108646 0.107833 0.10704 0.106266 0.10551 0.104773 0.104052 0.103349 0.102661
          0.10199 0.101333 0.100691 0.100064 0.0994502 0.0988499 0.0982627 0.0976881 0.0971258 0.0965755 0.0960367 0.0955093
          0.0949928 0.094487 0.0939916 0.0935064 0.093031 0.0925653 0.092109 0.0916619 0.0912237 0.0907942 0.0903732 0.0899606
          0.0895561 0.0891596 0.0887708 0.0883897 0.088016 0.0876496 0.0872903 0.086938 0.0865926 0.0862538 0.0859217 0.085596
          0.0852766 0.0849634 0.0846564 0.0843553 0.08406 0.0837706 0.0834868 0.0832086 0.0829359 0.0826686 0.0824066 0.0821498
          0.0818981 0.0816515 0.0814099 0.0811732 0.0809414 0.0807143 0.0804919 0.0802742 0.0800611 0.0798525 0.0796484 0.0794486
          0.0792533 0.0790622 0.0788755 0.0786929 0.0785145 0.0783402 0.07817 0.0780039 0.0778418 0.0776836 0.0775294 0.0773791
          0.0772326 0.07709 0.0769512 0.0768162 0.0766849 0.0765574 0.0764336 0.0763134 0.076197 0.0760841 0.0759749 0.0758694
          0.0757674 0.075669 0.0755741 0.0754829 0.0753952 0.075311 0.0752303 0.0751532 0.0750796 0.0750096 0.074943 0.07488
          0.0748204 0.0747644 0.074712 0.074663 0.0746176 0.0745757 0.0745374 0.0745026 0.0744714 0.0744437 0.0744197 0.0743993
          0.0743825 0.0743693 0.0743598 0.074354 0.0743519 0.0743536 0.074359 0.0743682 0.0743812 0.0743981 0.0744188 0.0744435
          0.0744721 0.0745048 0.0745414 0.0745822 0.0746271 0.0746761 0.0747294 0.074787 0.0748489 0.0749151 0.0749859 0.0750611
          0.075141 0.0752255 0.0753147 0.0754087 0.0755076 0.0756114 0.0757203 0.0758343 0.0759536 0.0760781 0.0762081 0.0763436
          0.0764848 0.0766317 0.0767845 0.0769433 0.0771082 0.0772794 0.077457 0.0776412 0.0778321 0.0780299 0.0782347 0.0784468
          0.0786663 0.0788933 0.0791283 0.0793712 0.0796224 0.0798821 0.0801505 0.080428 0.0807147 0.0810109 0.081317 0.0816333
          0.0819601 0.0822978 0.0826467 0.0830072 0.0833796 0.0837641 0.0841567 0.0845093 0.0842833 0.0776741 0.0245896
        </DataArray>
        <DataArray type="Float32" Name="porosity" NumberOfComponents="1" format="ascii">
          0.558 0.558 0.558 0.558 0.558 0.558 0.558 0.558 0.558 0.558 0.558 0.558
          0.558 0.558 0.558 0.558 0.558 0.558 0.558 0.558 0.558 0.558 0.558 0.558
          0.558 0.558 0.558 0.558 0.558 0.558 0.558 0.558 0.558 0.558 0.558 0.558
          0.558 0.558 0.558 0.558 0.558 0.558 0.558 0.558 0.558 0.558 0.558 0.558
          0.558 0.558 0.558 0.558 0.558 0.558 0.558 0.558 0.558 0.558 0.558 0.558
          0.558 0.558 0.558 0.558 0.558 0.558 0.558 0.558 0.558 0.558 0.558 0.558
          0.558 0.558 0.558 0.558 0.558 0.558 0.558 0.558 0.558 0.558 0.558 0.558
          0.558 0.558 0.558 0.558 0.558 0.558 0.558 0.558 0.558 0.558 0.558 0.558
          0.558 0.558 0.558 0.558 0.558 0.558 0.558 0.558 0.558 0.558 0.558 0.558
          0.558 0.558 0.558 0.558 0.558 0.558 0.558 0.558 0.558 0.558 0.558 0.558
          0.558 0.558 0.558 0.558 0.558 0.558 0.558 0.558 0.558 0.558 0.558 0.558
          0.558 0.558 0.558 0.558 0.558 0.558 0.558 0.558 0.558 0.558 0.558 0.558
          0.558 0.558 0.558 0.558 0.558 0.558 0.558 0.558 0.558 0.558 0.558 0.558
          0.558 0.558 0.558 0.558 0.558 0.558 0.558 0.558 0.558 0.558 0.558 0.558
          0.558 0.558 0.558 0.558 0.558 0.558 0.558 0.558 0.558 0.558 0.558 0.558
          0.558 0.558 0.558 0.558 0.558 0.558 0.558 0.558 0.558 0.558 0.558 0.558
          0.558 0.558 0.558 0.558 0.558 0.558 0.558 0.558 0.558 0.558 0.558 0.558
          0.558 0.558 0.558 0.558 0.558 0.558 0.558 0.558 0.558 0.558 0.558 0.558
          0.558 0.558 0.558 0.558 0.558 0.558 0.558 0.558 0.558 0.558 0.558 0.558
          0.558 0.558 0.558 0.558 0.558 0.558 0.558 0.558 0.558 0.558 0.558 0.558
          0.558 0.558 0.558 0.558 0.558 0.558 0.558 0.558 0.558 0.558 0.558
        </DataArray>
        <DataArray type="Float32" Name="filterVelocity_w" NumberOfComponents="1" format="ascii">
          0.000135756 0.000351646 0.000605286 0.000887809 0.00117953 0.00147553 0.00177375 0.00207305 0.00237275 0.00267239 0.00297165 0.00327029
          0.00356816 0.00386514 0.00416112 0.00445606 0.0047499 0.00504262 0.0053342 0.00562463 0.0059139 0.00620202 0.00648899 0.00677483
          0.00705955 0.00734316 0.00762568 0.00790712 0.00818751 0.00846687 0.0087452 0.00902254 0.0092989 0.0095743 0.00984877 0.0101223
          0.0103949 0.0106667 0.0109376 0.0112077 0.0114769 0.0117453 0.0120129 0.0122797 0.0125458 0.0128112 0.0130758 0.0133397
          0.0136029 0.0138654 0.0141272 0.0143884 0.014649 0.0149089 0.0151682 0.0154269 0.015685 0.0159425 0.0161995 0.0164559
          0.0167118 0.0169671 0.0172219 0.0174762 0.01773 0.0179834 0.0182362 0.0184885 0.0187404 0.0189919 0.0192428 0.0194934
          0.0197435 0.0199932 0.0202425 0.0204914 0.0207399 0.020988 0.0212357 0.0214831 0.0217301 0.0219767 0.022223 0.0224689
          0.0227145 0.0229597 0.0232046 0.0234493 0.0236935 0.0239375 0.0241812 0.0244246 0.0246677 0.0249105 0.025153 0.0253953
          0.0256373 0.025879 0.0261205 0.0263617 0.0266026 0.0268433 0.0270838 0.027324 0.027564 0.0278038 0.0280434 0.0282827
          0.0285218 0.0287607 0.0289994 0.0292379 0.0294762 0.0297143 0.0299523 0.03019 0.0304275 0.0306649 0.0309021 0.0311391
          0.031376 0.0316126 0.0318491 0.0320855 0.0323217 0.0325577 0.0327936 0.0330294 0.033265 0.0335004 0.0337357 0.0339709
          0.034206 0.0344409 0.0346756 0.0349103 0.0351448 0.0353792 0.0356135 0.0358477 0.0360817 0.0363156 0.0365495 0.0367832
          0.0370168 0.0372503 0.0374837 0.0377169 0.0379501 0.0381832 0.0384162 0.0386491 0.0388819 0.0391146 0.0393472 0.0395797
          0.0398121 0.0400445 0.0402767 0.0405089 0.040741 0.0409729 0.0412049 0.0414367 0.0416684 0.0419001 0.0421316 0.0423631
          0.0425946 0.0428259 0.0430571 0.0432883 0.0435194 0.0437504 0.0439813 0.0442122 0.0444429 0.0446736 0.0449042 0.0451347
          0.0453652 0.0455955 0.0458258 0.0460559 0.046286 0.046516 0.0467459 0.0469757 0.0472054 0.047435 0.0476646 0.047894
          0.0481233 0.0483525 0.0485816 0.0488106 0.0490394 0.0492682 0.0494968 0.0497253 0.0499537 0.0501819 0.05041 0.050638
          0.0508658 0.0510935 0.051321 0.0515483 0.0517755 0.0520024 0.0522292 0.0524558 0.0526822 0.0529084 0.0531344 0.0533602
          0.0535857 0.053811 0.054036 0.0542608 0.0544853 0.0547095 0.0549334 0.055157 0.0553802 0.0556032 0.0558257 0.0560479
          0.0562697 0.0564911 0.056712 0.0569326 0.0571526 0.0573721 0.0575912 0.0578097 0.0580276 0.0582449 0.0584617 0.0586777
          0.0588931 0.0591077 0.0593216 0.0595347 0.059747 0.0599584 0.0601688 0.060378 0.0605838 0.0607703 0.0608552
        </DataArray>
        <DataArray type="Float32" Name="filterVelocity_n" NumberOfComponents="1" format="ascii">
          0.325947 0.326114 0.326439 0.326748 0.327048 0.327341 0.32763 0.327918 0.328204 0.328491 0.32878 0.32907
          0.329363 0.329658 0.329957 0.330259 0.330565 0.330876 0.33119 0.331509 0.331833 0.332161 0.332495 0.332833
          0.333176 0.333524 0.333877 0.334236 0.3346 0.334969 0.335343 0.335723 0.336109 0.3365 0.336896 0.337299
          0.337706 0.33812 0.338539 0.338964 0.339395 0.339832 0.340274 0.340723 0.341177 0.341638 0.342104 0.342577
          0.343055 0.34354 0.344031 0.344528 0.345031 0.345541 0.346057 0.346579 0.347108 0.347643 0.348185 0.348733
          0.349288 0.34985 0.350418 0.350993 0.351575 0.352164 0.352759 0.353362 0.353971 0.354588 0.355212 0.355843
          0.356481 0.357127 0.35778 0.35844 0.359108 0.359784 0.360467 0.361158 0.361856 0.362563 0.363277 0.364
          0.36473 0.365469 0.366216 0.366971 0.367735 0.368507 0.369288 0.370077 0.370875 0.371682 0.372498 0.373323
          0.374158 0.375001 0.375854 0.376716 0.377588 0.37847 0.379361 0.380262 0.381173 0.382095 0.383026 0.383968
          0.384921 0.385884 0.386858 0.387842 0.388838 0.389845 0.390863 0.391893 0.392934 0.393987 0.395052 0.396129
          0.397218 0.39832 0.399434 0.400561 0.401701 0.402854 0.40402 0.405199 0.406392 0.407599 0.40882 0.410056
          0.411305 0.41257 0.413849 0.415143 0.416453 0.417778 0.419119 0.420476 0.421849 0.423239 0.424645 0.426069
          0.42751 0.428968 0.430445 0.431939 0.433452 0.434984 0.436535 0.438105 0.439695 0.441305 0.442936 0.444587
          0.446259 0.447953 0.449669 0.451407 0.453168 0.454952 0.456759 0.45859 0.460446 0.462326 0.464232 0.466163
          0.468121 0.470106 0.472118 0.474157 0.476225 0.478322 0.480448 0.482605 0.484792 0.487011 0.489261 0.491544
          0.493861 0.496211 0.498597 0.501018 0.503475 0.505969 0.508501 0.511072 0.513682 0.516333 0.519026 0.521761
          0.524539 0.527361 0.530229 0.533144 0.536106 0.539117 0.542178 0.54529 0.548455 0.551674 0.554948 0.558278
          0.561667 0.565115 0.568625 0.572197 0.575834 0.579538 0.583309 0.587151 0.591064 0.595052 0.599116 0.603258
          0.607482 0.611788 0.61618 0.62066 0.625232 0.629897 0.634659 0.639521 0.644485 0.649557 0.654738 0.660033
          0.665445 0.670979 0.676639 0.682428 0.688353 0.694417 0.700626 0.706985 0.7135 0.720177 0.727021 0.73404
          0.741241 0.74863 0.756216 0.764006 0.77201 0.780237 0.788696 0.797398 0.806359 0.815645 0.820354
        </DataArray>
        <DataArray type="Float32" Name="temperature" NumberOfComponents="1" format="ascii">
          299.75 299.75 299.75 299.75 299.75 299.75 299.75 299.75 299.75 299.75 299.75 299.75
          299.75 299.75 299.75 299.75 299.75 299.75 299.75 299.75 299.75 299.75 299.75 299.75
          299.75 299.75 299.75 299.75 299.75 299.75 299.75 299.75 299.75 299.75 299.75 299.75
          299.75 299.75 299.75 299.75 299.75 299.75 299.75 299.75 299.75 299.75 299.75 299.75
          299.75 299.75 299.75 299.75 299.75 299.75 299.75 299.75 299.75 299.75 299.75 299.75
          299.75 299.75 299.75 299.75 299.75 299.75 299.75 299.75 299.75 299.75 299.75 299.75
          299.75 299.75 299.75 299.75 299.75 299.75 299.75 299.75 299.75 299.75 299.75 299.75
          299.75 299.75 299.75 299.75 299.75 299.75 299.75 299.75 299.75 299.75 299.75 299.75
          299.75 299.75 299.75 299.75 299.75 299.75 299.75 299.75 299.75 299.75 299.75 299.75
          299.75 299.75 299.75 299.75 299.75 299.75 299.75 299.75 299.75 299.75 299.75 299.75
          299.75 299.75 299.75 299.75 299.75 299.75 299.75 299.75 299.75 299.75 299.75 299.75
          299.75 299.75 299.75 299.75 299.75 299.75 299.75 299.75 299.75 299.75 299.75 299.75
          299.75 299.75 299.75 299.75 299.75 299.75 299.75 299.75 299.75 299.75 299.75 299.75
          299.75 299.75 299.75 299.75 299.75 299.75 299.75 299.75 299.75 299.75 299.75 299.75
          299.75 299.75 299.75 299.75 299.75 299.75 299.75 299.75 299.75 299.75 299.75 299.75
          299.75 299.75 299.75 299.75 299.75 299.75 299.75 299.75 299.75 299.75 299.75 299.75
          299.75 299.75 299.75 299.75 299.75 299.75 299.75 299.75 299.75 299.75 299.75 299.75
          299.75 299.75 299.75 299.75 299.75 299.75 299.75 299.75 299.75 299.75 299.75 299.75
          299.75 299.75 299.75 299.75 299.75 299.75 299.75 299.75 299.75 299.75 299.75 299.75
          299.75 299.75 299.75 299.75 299.75 299.75 299.75 299.75 299.75 299.75 299.75 299.75
          299.75 299.75 299.75 299.75 299.75 299.75 299.75 299.75 299.75 299.75 299.75
        </DataArray>
      </PointData>
      <Points>
        <DataArray type="Float32" Name="Coordinates" NumberOfComponents="3" format="ascii">
          0 0 0 0.4 0 0 0.8 0 0 1.2 0 0
          1.6 0 0 2 0 0 2.4 0 0 2.8 0 0
          3.2 0 0 3.6 0 0 4 0 0 4.4 0 0
          4.8 0 0 5.2 0 0 5.6 0 0 6 0 0
          6.4 0 0 6.8 0 0 7.2 0 0 7.6 0 0
          8 0 0 8.4 0 0 8.8 0 0 9.2 0 0
          9.6 0 0 10 0 0 10.4 0 0 10.8 0 0
          11.2 0 0 11.6 0 0 12 0 0 12.4 0 0
          12.8 0 0 13.2 0 0 13.6 0 0 14 0 0
          14.4 0 0 14.8 0 0 15.2 0 0 15.6 0 0
          16 0 0 16.4 0 0 16.8 0 0 17.2 0 0
          17.6 0 0 18 0 0 18.4 0 0 18.8 0 0
          19.2 0 0 19.6 0 0 20 0 0 20.4 0 0
          20.8 0 0 21.2 0 0 21.6 0 0 22 0 0
          22.4 0 0 22.8 0 0 23.2 0 0 23.6 0 0
          24 0 0 24.4 0 0 24.8 0 0 25.2 0 0
          25.6 0 0 26 0 0 26.4 0 0 26.8 0 0
          27.2 0 0 27.6 0 0 28 0 0 28.4 0 0
          28.8 0 0 29.2 0 0 29.6 0 0 30 0 0
          30.4 0 0 30.8 0 0 31.2 0 0 31.6 0 0
          32 0 0 32.4 0 0 32.8 0 0 33.2 0 0
          33.6 0 0 34 0 0 34.4 0 0 34.8 0 0
          35.2 0 0 35.6 0 0 36 0 0 36.4 0 0
          36.8 0 0 37.2 0 0 37.6 0 0 38 0 0
          38.4 0 0 38.8 0 0 39.2 0 0 39.6 0 0
          40 0 0 40.4 0 0 40.8 0 0 41.2 0 0
          41.6 0 0 42 0 0 42.4 0 0 42.8 0 0
          43.2 0 0 43.6 0 0 44 0 0 44.4 0 0
          44.8 0 0 45.2 0 0 45.6 0 0 46 0 0
          46.4 0 0 46.8 0 0 47.2 0 0 47.6 0 0
          48 0 0 48.4 0 0 48.8 0 0 49.2 0 0
          49.6 0 0 50 0 0 50.4 0 0 50.8 0 0
          51.2 0 0 51.6 0 0 52 0 0 52.4 0 0
          52.8 0 0 53.2 0 0 53.6 0 0 54 0 0
          54.4 0 0 54.8 0 0 55.2 0 0 55.6 0 0
          56 0 0 56.4 0 0 56.8 0 0 57.2 0 0
          57.6 0 0 58 0 0 58.4 0 0 58.8 0 0
          59.2 0 0 59.6 0 0 60 0 0 60.4 0 0
          60.8 0 0 61.2 0 0 61.6 0 0 62 0 0
          62.4 0 0 62.8 0 0 63.2 0 0 63.6 0 0
          64 0 0 64.4 0 0 64.8 0 0 65.2 0 0
          65.6 0 0 66 0 0 66.4 0 0 66.8 0 0
          67.2 0 0 67.6 0 0 68 0 0 68.4 0 0
          68.8 0 0 69.2 0 0 69.6 0 0 70 0 0