<?xml version="1.0"?>
<VTKFile type="PolyData" version="0.1" byte_order="LittleEndian">
  <PolyData>
    <Piece NumberOfLines="250" NumberOfPoints="251">
      <PointData Scalars="pressure_w">
        <DataArray type="Float32" Name="pressure_w" NumberOfComponents="1" format="ascii">
          977721 977684 977604 977497 977366 977216 977048 976862 976659 976439 976203 975950
          975680 975393 975090 974769 974431 974076 973703 973312 972904 972477 972033 971570
          971088 970588 970069 969531 968974 968398 967802 967187 966552 965897 965222 964528
          963813 963078 962322 961546 960749 959932 959093 958234 957353 956452 955529 954584
          953618 952631 951621 950590 949537 948462 947365 946245 945103 943939 942752 941542
          940310 939055 937777 936475 935151 933804 932433 931038 929620 928179 926714 925224
          923711 922174 920613 919028 917418 915784 914125 912441 910733 909000 907242 905460
          903651 901818 899960 898075 896166 894230 892269 890282 888269 886230 884165 882074
          879956 877811 875640 873442 871218 868966 866687 864382 862048 859688 857299 854884
          852440 849968 847469 844941 842385 839801 837188 834546 831876 829177 826448 823691
          820904 818088 815242 812366 809461 806526 803560 800564 797538 794481 791393 788275
          785125 781944 778732 775489 772213 768906 765567 762196 758792 755356 751887 748385
          744850 741282 737680 734045 730376 726673 722936 719165 715358 711517 707641 703730
          699783 695801 691783 687728 683637 679510 675346 671144 666906 662630 658315 653963
          649572 645143 640675 636167 631620 627034 622407 617739 613031 608282 603491 598659
          593784 588867 583908 578905 573858 568768 563633 558453 553228 547958 542641 537278
          531868 526411 520905 515351 509748 504096 498393 492640 486836 480980 475071 469109
          463093 457023 450897 444716 438478 432182 425828 419415 412941 406407 399810 393151
          386427 379638 372783 365860 358868 351806 344672 337465 330183 322825 315389 307872
          300274 292592 284823 276965 269016 260972 252832 244590 236245 227791 219225 210542
          201736 192802 183733 174521 165159 155636 145940 136059 125976 115671 105126
        </DataArray>
        <DataArray type="Float32" Name="pressure_n" NumberOfComponents="1" format="ascii">
          980340 980220 980084 979932 979765 979583 979387 979177 978952 978711 978456 978186
          977899 977597 977279 976945 976594 976226 975842 975440 975021 974584 974130 973658
          973167 972658 972131 971585 971020 970436 969833 969211 968569 967908 967226 966526
          965805 965063 964302 963520 962718 961895 961052 960187 959302 958395 957467 956518
          955548 954556 953542 952506 951449 950370 949268 948145 946999 945831 944640 943427
          942191 940932 939650 938346 937018 935667 934293 932895 931474 930029 928561 927069
          925553 924013 922448 920860 919247 917610 915949 914263 912552 910816 909056 907270
          905459 903624 901762 899876 897964 896026 894062 892073 890058 888016 885949 883855
          881735 879588 877415 875215 872988 870734 868453 866145 863810 861447 859057 856639
          854194 851720 849219 846689 844131 841545 838930 836287 833614 830913 828183 825424
          822635 819817 816970 814093 811185 808248 805281 802284 799256 796197 793108 789988
          786837 783654 780441 777196 773919 770610 767270 763897 760492 757054 753584 750080
          746544 742975 739372 735735 732065 728361 724622 720849 717042 713200 709322 705410
          701462 697478 693459 689403 685312 681183 677018 672815 668576 664298 659983 655630
          651238 646808 642339 637830 633282 628694 624067 619398 614689 609939 605148 600315
          595439 590522 585561 580557 575510 570419 565283 560103 554878 549607 544290 538926
          533515 528057 522551 516997 511394 505741 500038 494284 488480 482623 476714 470752
          464736 458666 452540 446359 440120 433825 427471 421057 414584 408050 401453 394794
          388071 381282 374427 367505 360513 353452 346318 339112 331831 324474 317039 309524
          301926 294245 286478 278621 270674 262632 254493 246254 237910 229459 220896 212215
          203412 194482 185416 176209 166851 157332 147642 137767 127690 117393 106827
        </DataArray>
        <DataArray type="Float32" Name="density_w" NumberOfComponents="1" format="ascii">
          1000 1000 1000 1000 1000 1000 1000 1000 1000 1000 1000 1000
          1000 1000 1000 1000 1000 1000 1000 1000 1000 1000 1000 1000
          1000 1000 1000 1000 1000 1000 1000 1000 1000 1000 1000 1000
          1000 1000 1000 1000 1000 1000 1000 1000 1000 1000 1000 1000
          1000 1000 1000 1000 1000 1000 1000 1000 1000 1000 1000 1000
          1000 1000 1000 1000 1000 1000 1000 1000 1000 1000 1000 1000
          1000 1000 1000 1000 1000 1000 1000 1000 1000 1000 1000 1000
          1000 1000 1000 1000 1000 1000 1000 1000 1000 1000 1000 1000
          1000 1000 1000 1000 1000 1000 1000 1000 1000 1000 1000 1000
          1000 1000 1000 1000 1000 1000 1000 1000 1000 1000 1000 1000
          1000 1000 1000 1000 1000 1000 1000 1000 1000 1000 1000 1000
          1000 1000 1000 1000 1000 1000 1000 1000 1000 1000 1000 1000
          1000 1000 1000 1000 1000 1000 1000 1000 1000 1000 1000 1000
          1000 1000 1000 1000 1000 1000 1000 1000 1000 1000 1000 1000
          1000 1000 1000 1000 1000 1000 1000 1000 1000 1000 1000 1000
          1000 1000 1000 1000 1000 1000 1000 1000 1000 1000 1000 1000
          1000 1000 1000 1000 1000 1000 1000 1000 1000 1000 1000 1000
          1000 1000 1000 1000 1000 1000 1000 1000 1000 1000 1000 1000
          1000 1000 1000 1000 1000 1000 1000 1000 1000 1000 1000 1000
          1000 1000 1000 1000 1000 1000 1000 1000 1000 1000 1000 1000
          1000 1000 1000 1000 1000 1000 1000 1000 1000 1000 1000
        </DataArray>
        <DataArray type="Float32" Name="density_n" NumberOfComponents="1" format="ascii">
          11.3915 11.3901 11.3885 11.3868 11.3848 11.3827 11.3804 11.378 11.3754 11.3726 11.3696 11.3665
          11.3632 11.3596 11.3559 11.3521 11.348 11.3437 11.3392 11.3346 11.3297 11.3246 11.3194 11.3139
          11.3082 11.3023 11.2961 11.2898 11.2832 11.2764 11.2694 11.2622 11.2547 11.247 11.2391 11.231
          11.2226 11.214 11.2052 11.1961 11.1867 11.1772 11.1674 11.1573 11.147 11.1365 11.1257 11.1147
          11.1034 11.0919 11.0801 11.0681 11.0558 11.0433 11.0305 11.0174 11.0041 10.9905 10.9767 10.9626
          10.9482 10.9336 10.9187 10.9035 10.8881 10.8724 10.8564 10.8402 10.8237 10.8069 10.7898 10.7725
          10.7549 10.737 10.7188 10.7004 10.6816 10.6626 10.6433 10.6237 10.6038 10.5836 10.5632 10.5424
          10.5214 10.5001 10.4784 10.4565 10.4343 10.4118 10.389 10.3659 10.3424 10.3187 10.2947 10.2704
          10.2457 10.2208 10.1955 10.17 10.1441 10.1179 10.0914 10.0646 10.0374 10.01 9.98221 9.95412
          9.9257 9.89696 9.86789 9.83849 9.80877 9.77872 9.74833 9.71762 9.68657 9.65518 9.62346 9.59139
          9.55899 9.52625 9.49316 9.45972 9.42594 9.39181 9.35734 9.3225 9.28732 9.25178 9.21588 9.17963
          9.14301 9.10603 9.06869 9.03098 8.99291 8.95446 8.91564 8.87645 8.83688 8.79694 8.75661 8.71591
          8.67481 8.63334 8.59147 8.54922 8.50657 8.46352 8.42008 8.37624 8.332 8.28735 8.2423 8.19684
          8.15096 8.10467 8.05797 8.01084 7.96329 7.91532 7.86692 7.81809 7.76882 7.71912 7.66898 7.61839
          7.56736 7.51588 7.46395 7.41156 7.35872 7.30541 7.25163 7.19738 7.14267 7.08747 7.03179 6.97563
          6.91898 6.86184 6.8042 6.74605 6.6874 6.62825 6.56857 6.50838 6.44766 6.38641 6.32462 6.2623
          6.19943 6.13601 6.07203 6.00749 5.94238 5.87669 5.81042 5.74357 5.67612 5.60806 5.5394 5.47012
          5.40021 5.32968 5.2585 5.18667 5.11418 5.04103 4.96719 4.89267 4.81745 4.74152 4.66487 4.58749
          4.50937 4.43048 4.35083 4.27039 4.18915 4.10709 4.02421 3.94047 3.85587 3.77038 3.68398 3.59665
          3.50837 3.41912 3.32886 3.23757 3.14522 3.05177 2.9572 2.86146 2.76451 2.66631 2.5668 2.46593
          2.36364 2.25987 2.15453 2.04754 1.9388 1.82819 1.71559 1.60084 1.48376 1.3641 1.24132
        </DataArray>
        <DataArray type="Float32" Name="saturation_w" NumberOfComponents="1" format="ascii">
          0.282789 0.329152 0.364279 0.393331 0.418411 0.440627 0.460646 0.478904 0.495704 0.511268 0.525763 0.53932
          0.552042 0.564016 0.575313 0.585993 0.59611 0.605708 0.614829 0.623509 0.631778 0.639667 0.647201 0.654405
          0.661299 0.667904 0.674237 0.680317 0.686156 0.691771 0.697174 0.702378 0.707392 0.712229 0.716896 0.721405
          0.725762 0.729975 0.734052 0.738 0.741825 0.745533 0.749129 0.752618 0.756007 0.759298 0.762497 0.765607
          0.768632 0.771576 0.774443 0.777235 0.779955 0.782607 0.785193 0.787715 0.790177 0.79258 0.794926 0.797218
          0.799458 0.801647 0.803787 0.80588 0.807927 0.809931 0.811892 0.813812 0.815692 0.817533 0.819338 0.821106
          0.822839 0.824538 0.826205 0.827839 0.829442 0.831015 0.832559 0.834075 0.835562 0.837023 0.838458 0.839867
          0.841251 0.842612 0.843948 0.845262 0.846554 0.847823 0.849072 0.850299 0.851506 0.852694 0.853862 0.855012
          0.856143 0.857256 0.858351 0.859429 0.86049 0.861535 0.862564 0.863576 0.864574 0.865556 0.866523 0.867476
          0.868414 0.869339 0.87025 0.871147 0.872031 0.872902 0.873761 0.874606 0.87544 0.876262 0.877071 0.877869
          0.878656 0.879431 0.880195 0.880948 0.881691 0.882422 0.883144 0.883855 0.884556 0.885247 0.885928 0.8866
          0.887262 0.887914 0.888557 0.889191 0.889816 0.890432 0.891039 0.891637 0.892227 0.892808 0.89338 0.893944
          0.8945 0.895048 0.895587 0.896118 0.896642 0.897157 0.897664 0.898164 0.898656 0.89914 0.899617 0.900086
          0.900547 0.901001 0.901447 0.901886 0.902317 0.902741 0.903158 0.903568 0.90397 0.904364 0.904752 0.905132
          0.905504 0.90587 0.906228 0.906579 0.906922 0.907259 0.907587 0.907909 0.908223 0.908529 0.908828 0.90912
          0.909404 0.90968 0.909948 0.910209 0.910462 0.910707 0.910944 0.911173 0.911393 0.911605 0.911809 0.912004
          0.912191 0.912368 0.912537 0.912696 0.912846 0.912986 0.913117 0.913237 0.913348 0.913447 0.913536 0.913614
          0.913681 0.913735 0.913778 0.913808 0.913825 0.913829 0.913819 0.913795 0.913755 0.913701 0.91363 0.913542
          0.913436 0.913312 0.913168 0.913005 0.912819 0.912611 0.91238 0.912123 0.911839 0.911527 0.911184 0.910809
          0.910399 0.909952 0.909464 0.908934 0.908356 0.907727 0.907043 0.906298 0.905485 0.904598 0.903629 0.902569
          0.901405 0.900124 0.898711 0.897146 0.895404 0.893457 0.891266 0.888783 0.885946 0.882798 0.891794
        </DataArray>
        <DataArray type="Float32" Name="saturation_n" NumberOfComponents="1" format="ascii">
          0.717211 0.670848 0.635721 0.606669 0.581589 0.559373 0.539354 0.521096 0.504296 0.488732 0.474237 0.46068
          0.447958 0.435984 0.424687 0.414007 0.40389 0.394292 0.385171 0.376491 0.368222 0.360333 0.352799 0.345595
          0.338701 0.332096 0.325763 0.319684 0.313844 0.308229 0.302826 0.297622 0.292608 0.287771 0.283104 0.278595
          0.274238 0.270025 0.265948 0.262 0.258175 0.254467 0.250871 0.247381 0.243993 0.240702 0.237503 0.234393
          0.231368 0.228424 0.225557 0.222765 0.220045 0.217393 0.214807 0.212284 0.209823 0.20742 0.205074 0.202782
          0.200542 0.198353 0.196213 0.19412 0.192073 0.190069 0.188108 0.186188 0.184308 0.182467 0.180662 0.178894
          0.177161 0.175462 0.173795 0.172161 0.170558 0.168985 0.167441 0.165925 0.164438 0.162977 0.161542 0.160133
          0.158749 0.157388 0.156052 0.154738 0.153446 0.152177 0.150929 0.149701 0.148494 0.147306 0.146138 0.144988
          0.143857 0.142745 0.141649 0.140571 0.13951 0.138465 0.137436 0.136424 0.135426 0.134444 0.133477 0.132524
          0.131586 0.130661 0.12975 0.128853 0.127969 0.127098 0.126239 0.125394 0.12456 0.123738 0.122929 0.122131
          0.121344 0.120569 0.119805 0.119052 0.118309 0.117578 0.116856 0.116145 0.115444 0.114753 0.114072 0.1134
          0.112738 0.112086 0.111443 0.110809 0.110184 0.109568 0.108961 0.108363 0.107773 0.107192 0.10662 0.106056
          0.1055 0.104952 0.104413 0.103882 0.103358 0.102843 0.102336 0.101836 0.101344 0.10086 0.100383 0.0999144
          0.0994531 0.0989992 0.0985529 0.098114 0.0976826 0.0972585 0.0968418 0.0964325 0.0960305 0.0956358 0.0952484 0.0948683
          0.0944955 0.0941301 0.0937719 0.0934211 0.0930776 0.0927414 0.0924126 0.0920912 0.0917772 0.0914707 0.0911716 0.0908802
          0.0905963 0.0903201 0.0900516 0.0897908 0.089538 0.089293 0.0890561 0.0888274 0.0886068 0.0883946 0.0881909 0.0879957
          0.0878093 0.0876317 0.0874632 0.0873039 0.087154 0.0870137 0.0868831 0.0867626 0.0866523 0.0865526 0.0864637 0.0863858
          0.0863193 0.0862646 0.086222 0.0861919 0.0861747 0.0861709 0.0861809 0.0862053 0.0862446 0.0862995 0.0863705 0.0864584
          0.086564 0.0866881 0.0868316 0.0869954 0.0871807 0.0873885 0.0876203 0.0878773 0.0881611 0.0884735 0.0888161 0.0891913
          0.0896011 0.0900483 0.0905356 0.0910663 0.0916439 0.0922726 0.092957 0.0937025 0.094515 0.0954017 0.0963706 0.0974315
          0.0985955 0.099876 0.101289 0.102854 0.104596 0.106543 0.108734 0.111217 0.114054 0.117202 0.108206
        </DataArray>
        <DataArray type="Float32" Name="relativePerm_w" NumberOfComponents="1" format="ascii">
          0.0219569 0.0339285 0.0454176 0.0566692 0.0677617 0.0787265 0.0895754 0.10031 0.110928 0.121423 0.131787 0.142012
          0.152091 0.162016 0.171781 0.181382 0.190813 0.200072 0.209156 0.218065 0.226799 0.235357 0.243741 0.251954
          0.259996 0.26787 0.27558 0.283129 0.29052 0.297756 0.304841 0.311779 0.318574 0.325228 0.331747 0.338133
          0.34439 0.350522 0.356533 0.362425 0.368202 0.373867 0.379424 0.384875 0.390224 0.395473 0.400625 0.405683
          0.41065 0.415528 0.420319 0.425026 0.429652 0.434198 0.438666 0.443059 0.447378 0.451626 0.455804 0.459915
          0.463959 0.467938 0.471855 0.475711 0.479506 0.483244 0.486924 0.490549 0.494119 0.497636 0.501102 0.504517
          0.507882 0.511199 0.514468 0.517692 0.52087 0.524003 0.527093 0.530141 0.533147 0.536112 0.539037 0.541923
          0.544771 0.547581 0.550354 0.553091 0.555793 0.558459 0.561091 0.56369 0.566255 0.568789 0.57129 0.57376
          0.576199 0.578608 0.580987 0.583337 0.585658 0.58795 0.590215 0.592452 0.594663 0.596846 0.599004 0.601135
          0.603241 0.605322 0.607378 0.60941 0.611417 0.613401 0.615361 0.617298 0.619212 0.621104 0.622973 0.62482
          0.626646 0.62845 0.630232 0.631994 0.633734 0.635454 0.637154 0.638834 0.640493 0.642133 0.643753 0.645353
          0.646935 0.648497 0.65004 0.651564 0.65307 0.654557 0.656026 0.657477 0.658909 0.660324 0.66172 0.663099
          0.66446 0.665804 0.66713 0.668438 0.669729 0.671003 0.672259 0.673499 0.674721 0.675926 0.677114 0.678285
          0.679439 0.680575 0.681695 0.682798 0.683884 0.684953 0.686005 0.68704 0.688058 0.689058 0.690042 0.691008
          0.691957 0.692888 0.693802 0.694699 0.695578 0.696439 0.697282 0.698108 0.698915 0.699704 0.700474 0.701226
          0.701959 0.702673 0.703367 0.704042 0.704698 0.705333 0.705948 0.706543 0.707116 0.707669 0.7082 0.708708
          0.709194 0.709658 0.710098 0.710514 0.710906 0.711274 0.711615 0.711931 0.71222 0.712481 0.712714 0.712919
          0.713093 0.713237 0.713348 0.713427 0.713473 0.713483 0.713456 0.713392 0.713289 0.713145 0.712959 0.712728
          0.712451 0.712126 0.71175 0.711321 0.710837 0.710293 0.709688 0.709017 0.708277 0.707464 0.706572 0.705597
          0.704534 0.703376 0.702116 0.700746 0.699258 0.697642 0.695887 0.69398 0.691907 0.689652 0.687196 0.684517
          0.681589 0.678381 0.674857 0.670975 0.66668 0.661908 0.656576 0.650582 0.643794 0.636338 0.657857
        </DataArray>
        <DataArray type="Float32" Name="relativePerm_n" NumberOfComponents="1" format="ascii">
          0.568307 0.501406 0.452809 0.414101 0.381827 0.35416 0.329996 0.308608 0.289486 0.27226 0.256645 0.242421
          0.22941 0.217467 0.20647 0.196318 0.186923 0.178208 0.170109 0.162568 0.155534 0.148962 0.142812 0.137047
          0.131637 0.126553 0.121767 0.117258 0.113004 0.108985 0.105185 0.101587 0.0981771 0.0949423 0.0918704 0.0889504
          0.0861721 0.0835264 0.0810048 0.0785993 0.0763027 0.0741085 0.0720104 0.0700027 0.0680802 0.066238 0.0644715 0.0627766
          0.0611492 0.0595858 0.0580829 0.0566374 0.0552463 0.0539068 0.0526163 0.0513724 0.0501728 0.0490154 0.0478982 0.0468193
          0.0457768 0.0447693 0.0437949 0.0428524 0.0419402 0.0410572 0.0402019 0.0393732 0.0385701 0.0377915 0.0370363 0.0363036
          0.0355926 0.0349023 0.034232 0.0335808 0.0329481 0.0323332 0.0317353 0.0311539 0.0305884 0.0300381 0.0295026 0.0289813
          0.0284737 0.0279793 0.0274978 0.0270286 0.0265713 0.0261256 0.025691 0.0252673 0.024854 0.0244508 0.0240574 0.0236734
          0.0232987 0.0229329 0.0225757 0.0222269 0.0218862 0.0215534 0.0212283 0.0209105 0.0206 0.0202965 0.0199998 0.0197098
          0.0194261 0.0191488 0.0188775 0.0186121 0.0183525 0.0180985 0.01785 0.0176068 0.0173687 0.0171358 0.0169077 0.0166844
          0.0164658 0.0162518 0.0160422 0.015837 0.015636 0.0154392 0.0152463 0.0150575 0.0148725 0.0146912 0.0145136 0.0143397
          0.0141692 0.0140022 0.0138386 0.0136782 0.0135211 0.0133671 0.0132163 0.0130684 0.0129236 0.0127816 0.0126425 0.0125061
          0.0123726 0.0122417 0.0121134 0.0119878 0.0118646 0.011744 0.0116259 0.0115101 0.0113967 0.0112857 0.0111769 0.0110704
          0.0109662 0.0108641 0.0107642 0.0106664 0.0105707 0.010477 0.0103854 0.0102958 0.0102082 0.0101226 0.0100389 0.00995716
          0.00987729 0.0097993 0.00972318 0.0096489 0.00957646 0.00950583 0.00943701 0.00936998 0.00930473 0.00924126 0.00917956 0.00911961
          0.00906142 0.00900497 0.00895028 0.00889733 0.00884614 0.00879669 0.008749 0.00870307 0.0086589 0.00861652 0.00857592 0.00853713
          0.00850015 0.00846501 0.00843173 0.00840033 0.00837083 0.00834327 0.00831767 0.00829407 0.00827251 0.00825303 0.00823568 0.00822051
          0.00820757 0.00819692 0.00818864 0.00818279 0.00817945 0.0081787 0.00818065 0.00818539 0.00819303 0.0082037 0.00821753 0.00823466
          0.00825526 0.0082795 0.00830757 0.00833968 0.00837607 0.008417 0.00846275 0.00851363 0.00857 0.00863225 0.00870082 0.00877619
          0.00885891 0.00894962 0.009049 0.00915786 0.00927711 0.00940779 0.00955111 0.00970845 0.00988144 0.010072 0.0102823 0.0105152
          0.0107737 0.0110617 0.0113841 0.0117467 0.0121568 0.0126239 0.0131601 0.0137814 0.0145091 0.0153387 0.0130298
        </DataArray>
        <DataArray type="Float32" Name="porosity" NumberOfComponents="1" format="ascii">
          0.558 0.558 0.558 0.558 0.558 0.558 0.558 0.558 0.558 0.558 0.558 0.558
          0.558 0.558 0.558 0.558 0.558 0.558 0.558 0.558 0.558 0.558 0.558 0.558
          0.558 0.558 0.558 0.558 0.558 0.558 0.558 0.558 0.558 0.558 0.558 0.558
          0.558 0.558 0.558 0.558 0.558 0.558 0.558 0.558 0.558 0.558 0.558 0.558
          0.558 0.558 0.558 0.558 0.558 0.558 0.558 0.558 0.558 0.558 0.558 0.558
          0.558 0.558 0.558 0.558 0.558 0.558 0.558 0.558 0.558 0.558 0.558 0.558
          0.558 0.558 0.558 0.558 0.558 0.558 0.558 0.558 0.558 0.558 0.558 0.558
          0.558 0.558 0.558 0.558 0.558 0.558 0.558 0.558 0.558 0.558 0.558 0.558
          0.558 0.558 0.558 0.558 0.558 0.558 0.558 0.558 0.558 0.558 0.558 0.558
          0.558 0.558 0.558 0.558 0.558 0.558 0.558 0.558 0.558 0.558 0.558 0.558
          0.558 0.558 0.558 0.558 0.558 0.558 0.558 0.558 0.558 0.558 0.558 0.558
          0.558 0.558 0.558 0.558 0.558 0.558 0.558 0.558 0.558 0.558 0.558 0.558
          0.558 0.558 0.558 0.558 0.558 0.558 0.558 0.558 0.558 0.558 0.558 0.558
          0.558 0.558 0.558 0.558 0.558 0.558 0.558 0.558 0.558 0.558 0.558 0.558
          0.558 0.558 0.558 0.558 0.558 0.558 0.558 0.558 0.558 0.558 0.558 0.558
          0.558 0.558 0.558 0.558 0.558 0.558 0.558 0.558 0.558 0.558 0.558 0.558
          0.558 0.558 0.558 0.558 0.558 0.558 0.558 0.558 0.558 0.558 0.558 0.558
          0.558 0.558 0.558 0.558 0.558 0.558 0.558 0.558 0.558 0.558 0.558 0.558
          0.558 0.558 0.558 0.558 0.558 0.558 0.558 0.558 0.558 0.558 0.558 0.558
          0.558 0.558 0.558 0.558 0.558 0.558 0.558 0.558 0.558 0.558 0.558 0.558
          0.558 0.558 0.558 0.558 0.558 0.558 0.558 0.558 0.558 0.558 0.558
        </DataArray>
        <DataArray type="Float32" Name="filterVelocity_w" NumberOfComponents="1" format="ascii">
          0.000114425 0.000313197 0.000556906 0.00084472 0.00115909 0.00149444 0.00184756 0.00221605 0.00259795 0.00299157 0.00339539 0.00380808
          0.00422839 0.00465524 0.00508763 0.00552464 0.0059655 0.00640946 0.0068559 0.00730424 0.00775398 0.00820468 0.00865594 0.00910742
          0.00955883 0.0100099 0.0104604 0.0109102 0.011359 0.0118067 0.0122533 0.0126985 0.0131424 0.0135848 0.0140256 0.0144649
          0.0149026 0.0153386 0.0157729 0.0162056 0.0166365 0.0170657 0.0174932 0.017919 0.018343 0.0187654 0.019186 0.019605
          0.0200223 0.0204379 0.0208519 0.0212643 0.0216751 0.0220843 0.0224919 0.022898 0.0233025 0.0237056 0.0241072 0.0245073
          0.024906 0.0253033 0.0256992 0.0260937 0.0264869 0.0268788 0.0272693 0.0276586 0.0280467 0.0284335 0.028819 0.0292034
          0.0295867 0.0299687 0.0303497 0.0307295 0.0311083 0.0314859 0.0318626 0.0322382 0.0326128 0.0329864 0.033359 0.0337307
          0.0341015 0.0344713 0.0348403 0.0352083 0.0355755 0.0359419 0.0363074 0.0366722 0.0370361 0.0373993 0.0377617 0.0381233
          0.0384842 0.0388445 0.039204 0.0395629 0.039921 0.0402786 0.0406355 0.0409918 0.0413475 0.0417026 0.0420571 0.0424111
          0.0427646 0.0431175 0.0434699 0.0438218 0.0441732 0.0445242 0.0448747 0.0452247 0.0455743 0.0459235 0.0462724 0.0466208
          0.0469689 0.0473166 0.0476639 0.0480109 0.0483577 0.0487041 0.0490502 0.049396 0.0497416 0.050087 0.0504321 0.0507769
          0.0511216 0.0514661 0.0518104 0.0521546 0.0524985 0.0528424 0.0531861 0.0535298 0.0538733 0.0542167 0.0545601 0.0549034
          0.0552467 0.05559 0.0559332 0.0562765 0.0566198 0.0569631 0.0573065 0.0576499 0.0579935 0.0583371 0.0586808 0.0590247
          0.0593687 0.0597128 0.0600572 0.0604017 0.0607465 0.0610915 0.0614367 0.0617822 0.0621279 0.062474 0.0628204 0.0631671
          0.0635142 0.0638617 0.0642095 0.0645578 0.0649065 0.0652556 0.0656053 0.0659554 0.066306 0.0666572 0.067009 0.0673613
          0.0677143 0.0680679 0.0684222 0.0687771 0.0691328 0.0694892 0.0698464 0.0702044 0.0705632 0.0709228 0.0712834 0.0716448
          0.0720072 0.0723706 0.072735 0.0731005 0.0734671 0.0738348 0.0742036 0.0745737 0.0749449 0.0753175 0.0756914 0.0760667
          0.0764434 0.0768216 0.0772013 0.0775826 0.0779655 0.0783501 0.0787364 0.0791245 0.0795145 0.0799065 0.0803004 0.0806964
          0.0810946 0.081495 0.0818977 0.0823028 0.0827104 0.0831205 0.0835334 0.0839491 0.0843676 0.0847892 0.085214 0.085642
          0.0860735 0.0865086 0.0869475 0.0873902 0.0878372 0.0882884 0.0887442 0.0892047 0.0896704 0.0901413 0.090618 0.0911006
          0.0915896 0.0920854 0.0925884 0.0930993 0.0936185 0.0941468 0.094685 0.095234 0.0957947 0.0963681 0.096657
        </DataArray>
        <DataArray type="Float32" Name="filterVelocity_n" NumberOfComponents="1" format="ascii">
          0.0879473 0.0880819 0.0883241 0.0885174 0.088669 0.0887844 0.0888676 0.0889223 0.0889515 0.0889579 0.0889438 0.0889113
          0.0888623 0.0887986 0.0887218 0.0886332 0.0885341 0.0884257 0.0883091 0.0881851 0.0880547 0.0879185 0.0877774 0.0876318
          0.0874824 0.0873296 0.087174 0.0870159 0.0868558 0.0866938 0.0865305 0.0863659 0.0862004 0.0860342 0.0858675 0.0857005
          0.0855334 0.0853663 0.0851993 0.0850326 0.0848663 0.0847005 0.0845354 0.0843709 0.0842073 0.0840444 0.0838826 0.0837217
          0.083562 0.0834033 0.0832458 0.0830896 0.0829346 0.082781 0.0826287 0.0824778 0.0823284 0.0821805 0.082034 0.0818892
          0.0817458 0.0816041 0.0814641 0.0813256 0.0811889 0.0810539 0.0809206 0.0807891 0.0806593 0.0805314 0.0804052 0.080281
          0.0801586 0.0800381 0.0799195 0.0798028 0.0796882 0.0795754 0.0794647 0.079356 0.0792494 0.0791448 0.0790423 0.0789419
          0.0788436 0.0787475 0.0786536 0.0785618 0.0784723 0.078385 0.0783 0.0782173 0.0781369 0.0780588 0.0779831 0.0779098
          0.0778389 0.0777705 0.0777045 0.0776411 0.0775802 0.0775218 0.0774661 0.077413 0.0773625 0.0773148 0.0772697 0.0772275
          0.077188 0.0771514 0.0771176 0.0770868 0.0770589 0.077034 0.0770122 0.0769934 0.0769778 0.0769654 0.0769561 0.0769502
          0.0769476 0.0769483 0.0769525 0.0769602 0.0769714 0.0769862 0.0770046 0.0770269 0.0770528 0.0770827 0.0771165 0.0771542
          0.0771961 0.0772421 0.0772923 0.0773468 0.0774057 0.0774691 0.077537 0.0776096 0.0776869 0.0777691 0.0778562 0.0779484
          0.0780458 0.0781484 0.0782564 0.07837 0.0784891 0.0786141 0.0787449 0.0788818 0.0790249 0.0791743 0.0793302 0.0794928
          0.0796622 0.0798386 0.0800221 0.080213 0.0804115 0.0806178 0.080832 0.0810545 0.0812854 0.0815249 0.0817734 0.082031
          0.0822982 0.082575 0.0828619 0.0831591 0.083467 0.0837859 0.0841162 0.0844582 0.0848123 0.0851789 0.0855585 0.0859515
          0.0863584 0.0867796 0.0872158 0.0876673 0.0881348 0.0886189 0.0891203 0.0896396 0.0901774 0.0907347 0.0913121 0.0919104
          0.0925306 0.0931736 0.0938404 0.094532 0.0952496 0.0959942 0.0967673 0.0975701 0.0984041 0.0992707 0.100172 0.101109
          0.102084 0.103098 0.104155 0.105257 0.106405 0.107602 0.108852 0.110158 0.111523 0.11295 0.114443 0.116008
          0.117648 0.119369 0.121176 0.123076 0.125075 0.127181 0.129403 0.131748 0.134229 0.136855 0.13964 0.142598
          0.145745 0.149099 0.15268 0.156512 0.160623 0.165041 0.169804 0.174953 0.180535 0.186608 0.193239 0.200509
          0.208516 0.217378 0.227241 0.238286 0.250745 0.264911 0.281169 0.300031 0.322196 0.348646 0.362406
        </DataArray>
        <DataArray type="Float32" Name="temperature" NumberOfComponents="1" format="ascii">
          299.75 299.75 299.75 299.75 299.75 299.75 299.75 299.75 299.75 299.75 299.75 299.75
          299.75 299.75 299.75 299.75 299.75 299.75 299.75 299.75 299.75 299.75 299.75 299.75
          299.75 299.75 299.75 299.75 299.75 299.75 299.75 299.75 299.75 299.75 299.75 299.75
          299.75 299.75 299.75 299.75 299.75 299.75 299.75 299.75 299.75 299.75 299.75 299.75
          299.75 299.75 299.75 299.75 299.75 299.75 299.75 299.75 299.75 299.75 299.75 299.75
          299.75 299.75 299.75 299.75 299.75 299.75 299.75 299.75 299.75 299.75 299.75 299.75
          299.75 299.75 299.75 299.75 299.75 299.75 299.75 299.75 299.75 299.75 299.75 299.75
          299.75 299.75 299.75 299.75 299.75 299.75 299.75 299.75 299.75 299.75 299.75 299.75
          299.75 299.75 299.75 299.75 299.75 299.75 299.75 299.75 299.75 299.75 299.75 299.75
          299.75 299.75 299.75 299.75 299.75 299.75 299.75 299.75 299.75 299.75 299.75 299.75
          299.75 299.75 299.75 299.75 299.75 299.75 299.75 299.75 299.75 299.75 299.75 299.75
          299.75 299.75 299.75 299.75 299.75 299.75 299.75 299.75 299.75 299.75 299.75 299.75
          299.75 299.75 299.75 299.75 299.75 299.75 299.75 299.75 299.75 299.75 299.75 299.75
          299.75 299.75 299.75 299.75 299.75 299.75 299.75 299.75 299.75 299.75 299.75 299.75
          299.75 299.75 299.75 299.75 299.75 299.75 299.75 299.75 299.75 299.75 299.75 299.75
          299.75 299.75 299.75 299.75 299.75 299.75 299.75 299.75 299.75 299.75 299.75 299.75
          299.75 299.75 299.75 299.75 299.75 299.75 299.75 299.75 299.75 299.75 299.75 299.75
          299.75 299.75 299.75 299.75 299.75 299.75 299.75 299.75 299.75 299.75 299.75 299.75
          299.75 299.75 299.75 299.75 299.75 299.75 299.75 299.75 299.75 299.75 299.75 299.75
          299.75 299.75 299.75 299.75 299.75 299.75 299.75 299.75 299.75 299.75 299.75 299.75
          299.75 299.75 299.75 299.75 299.75 299.75 299.75 299.75 299.75 299.75 299.75
        </DataArray>
      </PointData>
      <Points>
        <DataArray type="Float32" Name="Coordinates" NumberOfComponents="3" format="ascii">
          0 0 0 0.4 0 0 0.8 0 0 1.2 0 0
          1.6 0 0 2 0 0 2.4 0 0 2.8 0 0
          3.2 0 0 3.6 0 0 4 0 0 4.4 0 0
          4.8 0 0 5.2 0 0 5.6 0 0 6 0 0
          6.4 0 0 6.8 0 0 7.2 0 0 7.6 0 0
          8 0 0 8.4 0 0 8.8 0 0 9.2 0 0
          9.6 0 0 10 0 0 10.4 0 0 10.8 0 0
          11.2 0 0 11.6 0 0 12 0 0 12.4 0 0
          12.8 0 0 13.2 0 0 13.6 0 0 14 0 0
          14.4 0 0 14.8 0 0 15.2 0 0 15.6 0 0
          16 0 0 16.4 0 0 16.8 0 0 17.2 0 0
          17.6 0 0 18 0 0 18.4 0 0 18.8 0 0
          19.2 0 0 19.6 0 0 20 0 0 20.4 0 0
          20.8 0 0 21.2 0 0 21.6 0 0 22 0 0
          22.4 0 0 22.8 0 0 23.2 0 0 23.6 0 0
          24 0 0 24.4 0 0 24.8 0 0 25.2 0 0
          25.6 0 0 26 0 0 26.4 0 0 26.8 0 0
          27.2 0 0 27.6 0 0 28 0 0 28.4 0 0
          28.8 0 0 29.2 0 0 29.6 0 0 30 0 0
          30.4 0 0 30.8 0 0 31.2 0 0 31.6 0 0
          32 0 0 32.4 0 0 32.8 0 0 33.2 0 0
          33.6 0 0 34 0 0 34.4 0 0 34.8 0 0
          35.2 0 0 35.6 0 0 36 0 0 36.4 0 0
          36.8 0 0 37.2 0 0 37.6 0 0 38 0 0
          38.4 0 0 38.8 0 0 39.2 0 0 39.6 0 0
          40 0 0 40.4 0 0 40.8 0 0 41.2 0 0
          41.6 0 0 42 0 0 42.4 0 0 42.8 0 0
          43.2 0 0 43.6 0 0 44 0 0 44.4 0 0
          44.8 0 0 45.2 0 0 45.6 0 0 46 0 0
          46.4 0 0 46.8 0 0 47.2 0 0 47.6 0 0
          48 0 0 48.4 0 0 48.8 0 0 49.2 0 0
          49.6 0 0 50 0 0 50.4 0 0 50.8 0 0
          51.2 0 0 51.6 0 0 52 0 0 52.4 0 0
          52.8 0 0 53.2 0 0 53.6 0 0 54 0 0