<?xml version="1.0"?>
<VTKFile type="PolyData" version="0.1" byte_order="LittleEndian">
  <PolyData>
    <Piece NumberOfLines="250" NumberOfPoints="251">
      <PointData Scalars="pressure_w">
        <DataArray type="Float32" Name="pressure_w" NumberOfComponents="1" format="ascii">
          1.35998e+06 1.35998e+06 1.35997e+06 1.35994e+06 1.35989e+06 1.35982e+06 1.35973e+06 1.35957e+06 1.35852e+06 1.18083e+06 989160 780537
          1.34206e+06 1.16862e+06 711458 587659 585588 583518 581447 579376 577306 575236 573165 571094
          569023 566953 564882 562811 560740 558670 556598 554528 552457 550387 548316 546245
          544174 542104 540033 537962 535892 533821 531750 529679 527608 525538 523467 521396
          519326 517255 515183 513113 511043 508972 506901 504830 502760 500689 498618 496547
          494477 492406 490335 488264 486193 484123 482052 479981 477911 475840 473769 471698
          469628 467557 465486 463415 461345 459274 457203 455132 453062 450991 448921 446850
          444779 442708 440638 438567 436496 434425 432355 430284 428213 426142 424072 422001
          419930 417859 415789 413718 411647 409577 407506 405435 403364 401294 399223 397152
          395081 393011 390940 388869 386798 384728 382657 380586 378515 376444 374374 372303
          370232 368162 366091 364020 361949 359879 357808 355737 353666 351595 349525 347454
          345383 343312 341242 339171 337100 335029 332959 330888 328817 326747 324676 322605
          320534 318463 316393 314322 312251 310181 308110 306039 303968 301897 299827 297756
          295685 293614 291544 289473 287402 285332 283261 281190 279120 277049 274978 272907
          270836 268766 266695 264624 262553 260483 258412 256341 254271 252200 250129 248058
          245988 243917 241846 239775 237705 235634 233563 231492 229422 227351 225280 223209
          221138 219068 216997 214926 212855 210785 208714 206643 204573 202502 200431 198360
          196290 194219 192148 190077 188007 185936 183865 181794 179724 177653 175582 173511
          171441 169370 167299 165228 163158 161087 159016 156946 154875 152804 150733 148662
          146592 144521 142450 140380 138309 136238 134167 132097 130026 127955 125884 123814
          121743 119672 117601 115531 113460 111389 109318 107248 105177 103106 101035
        </DataArray>
        <DataArray type="Float32" Name="pressure_n" NumberOfComponents="1" format="ascii">
          1.36229e+06 1.36227e+06 1.36224e+06 1.3622e+06 1.36217e+06 1.36214e+06 1.36211e+06 1.36208e+06 1.36208e+06 1.36204e+06 1.3628e+06 1.36303e+06
          1.36262e+06 1.39328e+06 1.23464e+06 802856 585588 583518 581447 579376 577306 575236 573165 571094
          569023 566953 564882 562811 560740 558670 556598 554528 552457 550387 548316 546245
          544174 542104 540033 537962 535892 533821 531750 529679 527608 525538 523467 521396
          519326 517255 515183 513113 511043 508972 506901 504830 502760 500689 498618 496547
          494477 492406 490335 488264 486193 484123 482052 479981 477911 475840 473769 471698
          469628 467557 465486 463415 461345 459274 457203 455132 453062 450991 448921 446850
          444779 442708 440638 438567 436496 434425 432355 430284 428213 426142 424072 422001
          419930 417859 415789 413718 411647 409577 407506 405435 403364 401294 399223 397152
          395081 393011 390940 388869 386798 384728 382657 380586 378515 376444 374374 372303
          370232 368162 366091 364020 361949 359879 357808 355737 353666 351595 349525 347454
          345383 343312 341242 339171 337100 335029 332959 330888 328817 326747 324676 322605
          320534 318463 316393 314322 312251 310181 308110 306039 303968 301897 299827 297756
          295685 293614 291544 289473 287402 285332 283261 281190 279120 277049 274978 272907
          270836 268766 266695 264624 262553 260483 258412 256341 254271 252200 250129 248058
          245988 243917 241846 239775 237705 235634 233563 231492 229422 227351 225280 223209
          221138 219068 216997 214926 212855 210785 208714 206643 204573 202502 200431 198360
          196290 194219 192148 190077 188007 185936 183865 181794 179724 177653 175582 173511
          171441 169370 167299 165228 163158 161087 159016 156946 154875 152804 150733 148662
          146592 144521 142450 140380 138309 136238 134167 132097 130026 127955 125884 123814
          121743 119672 117601 115531 113460 111389 109318 107248 105177 103106 101035
        </DataArray>
        <DataArray type="Float32" Name="density_w" NumberOfComponents="1" format="ascii">
          1000 1000 1000 1000 1000 1000 1000 1000 1000 1000 1000 1000
          1000 1000 1000 1000 1000 1000 1000 1000 1000 1000 1000 1000
          1000 1000 1000 1000 1000 1000 1000 1000 1000 1000 1000 1000
          1000 1000 1000 1000 1000 1000 1000 1000 1000 1000 1000 1000
          1000 1000 1000 1000 1000 1000 1000 1000 1000 1000 1000 1000
          1000 1000 1000 1000 1000 1000 1000 1000 1000 1000 1000 1000
          1000 1000 1000 1000 1000 1000 1000 1000 1000 1000 1000 1000
          1000 1000 1000 1000 1000 1000 1000 1000 1000 1000 1000 1000
          1000 1000 1000 1000 1000 1000 1000 1000 1000 1000 1000 1000
          1000 1000 1000 1000 1000 1000 1000 1000 1000 1000 1000 1000
          1000 1000 1000 1000 1000 1000 1000 1000 1000 1000 1000 1000
          1000 1000 1000 1000 1000 1000 1000 1000 1000 1000 1000 1000
          1000 1000 1000 1000 1000 1000 1000 1000 1000 1000 1000 1000
          1000 1000 1000 1000 1000 1000 1000 1000 1000 1000 1000 1000
          1000 1000 1000 1000 1000 1000 1000 1000 1000 1000 1000 1000
          1000 1000 1000 1000 1000 1000 1000 1000 1000 1000 1000 1000
          1000 1000 1000 1000 1000 1000 1000 1000 1000 1000 1000 1000
          1000 1000 1000 1000 1000 1000 1000 1000 1000 1000 1000 1000
          1000 1000 1000 1000 1000 1000 1000 1000 1000 1000 1000 1000
          1000 1000 1000 1000 1000 1000 1000 1000 1000 1000 1000 1000
          1000 1000 1000 1000 1000 1000 1000 1000 1000 1000 1000
        </DataArray>
        <DataArray type="Float32" Name="density_n" NumberOfComponents="1" format="ascii">
          15.8298 15.8295 15.8292 15.8288 15.8284 15.828 15.8276 15.8274 15.8274 15.8269 15.8356 15.8384
          15.8336 16.1898 14.3465 9.32916 6.80451 6.78046 6.75639 6.73233 6.70827 6.68422 6.66015 6.63609
          6.61203 6.58797 6.56391 6.53984 6.51578 6.49172 6.46765 6.4436 6.41953 6.39547 6.37141 6.34735
          6.32328 6.29922 6.27516 6.25109 6.22704 6.20298 6.17891 6.15485 6.13079 6.10673 6.08267 6.0586
          6.03454 6.01048 5.98641 5.96235 5.93829 5.91423 5.89017 5.86611 5.84205 5.81798 5.79392 5.76986
          5.7458 5.72174 5.69767 5.67361 5.64954 5.62549 5.60143 5.57736 5.5533 5.52924 5.50518 5.48112
          5.45706 5.43299 5.40893 5.38487 5.36081 5.33675 5.31268 5.28862 5.26456 5.2405 5.21644 5.19238
          5.16832 5.14425 5.12019 5.09613 5.07207 5.04801 5.02395 4.99988 4.97582 4.95176 4.9277 4.90364
          4.87957 4.85551 4.83145 4.80739 4.78333 4.75926 4.7352 4.71114 4.68707 4.66302 4.63895 4.61489
          4.59083 4.56677 4.54271 4.51864 4.49458 4.47052 4.44646 4.4224 4.39833 4.37427 4.35021 4.32615
          4.30209 4.27802 4.25396 4.2299 4.20584 4.18178 4.15771 4.13365 4.10959 4.08552 4.06147 4.0374
          4.01334 3.98928 3.96522 3.94116 3.91709 3.89303 3.86897 3.8449 3.82085 3.79678 3.77272 3.74866
          3.72459 3.70053 3.67647 3.65241 3.62835 3.60429 3.58023 3.55616 3.5321 3.50804 3.48398 3.45992
          3.43585 3.41179 3.38773 3.36367 3.33961 3.31554 3.29148 3.26742 3.24336 3.2193 3.19523 3.17117
          3.14711 3.12305 3.09899 3.07492 3.05086 3.0268 3.00274 2.97868 2.95461 2.93055 2.90649 2.88243
          2.85837 2.8343 2.81024 2.78618 2.76212 2.73805 2.71399 2.68993 2.66587 2.64181 2.61775 2.59368
          2.56962 2.54556 2.5215 2.49744 2.47337 2.44931 2.42525 2.40119 2.37713 2.35306 2.329 2.30494
          2.28088 2.25682 2.23275 2.20869 2.18463 2.16057 2.13651 2.11244 2.08838 2.06432 2.04026 2.0162
          1.99213 1.96807 1.94401 1.91995 1.89589 1.87182 1.84776 1.8237 1.79964 1.77558 1.75151 1.72745
          1.70339 1.67933 1.65527 1.6312 1.60714 1.58308 1.55902 1.53496 1.5109 1.48683 1.46277 1.43871
          1.41465 1.39059 1.36652 1.34246 1.3184 1.29434 1.27028 1.24621 1.22215 1.19809 1.17403
        </DataArray>
        <DataArray type="Float32" Name="saturation_w" NumberOfComponents="1" format="ascii">
          0.481146 0.499858 0.514542 0.518629 0.509347 0.48121 0.431276 0.342656 0.049314 -2.77132 -5.80191 -9.09134
          -0.241221 -3.45551 -8.15727 -3.30661 1 1 1 1 1 1 1 1
          1 1 1 1 1 1 1 1 1 1 1 1
          1 1 1 1 1 1 1 1 1 1 1 1
          1 1 1 1 1 1 1 1 1 1 1 1
          1 1 1 1 1 1 1 1 1 1 1 1
          1 1 1 1 1 1 1 1 1 1 1 1
          1 1 1 1 1 1 1 1 1 1 1 1
          1 1 1 1 1 1 1 1 1 1 1 1
          1 1 1 1 1 1 1 1 1 1 1 1
          1 1 1 1 1 1 1 1 1 1 1 1
          1 1 1 1 1 1 1 1 1 1 1 1
          1 1 1 1 1 1 1 1 1 1 1 1
          1 1 1 1 1 1 1 1 1 1 1 1
          1 1 1 1 1 1 1 1 1 1 1 1
          1 1 1 1 1 1 1 1 1 1 1 1
          1 1 1 1 1 1 1 1 1 1 1 1
          1 1 1 1 1 1 1 1 1 1 1 1
          1 1 1 1 1 1 1 1 1 1 1 1
          1 1 1 1 1 1 1 1 1 1 1 1
          1 1 1 1 1 1 1 1 1 1 1
        </DataArray>
        <DataArray type="Float32" Name="saturation_n" NumberOfComponents="1" format="ascii">
          0.518854 0.500142 0.485458 0.481371 0.490653 0.51879 0.568724 0.657344 0.950686 3.77132 6.80191 10.0913
          1.24122 4.45551 9.15727 4.30661 0 0 0 0 0 0 0 0
          0 0 0 0 0 0 0 0 0 0 0 0
          0 0 0 0 0 0 0 0 0 0 0 0
          0 0 0 0 0 0 0 0 0 0 0 0
          0 0 0 0 0 0 0 0 0 0 0 0
          0 0 0 0 0 0 0 0 0 0 0 0
          0 0 0 0 0 0 0 0 0 0 0 0
          0 0 0 0 0 0 0 0 0 0 0 0
          0 0 0 0 0 0 0 0 0 0 0 0
          0 0 0 0 0 0 0 0 0 0 0 0
          0 0 0 0 0 0 0 0 0 0 0 0
          0 0 0 0 0 0 0 0 0 0 0 0
          0 0 0 0 0 0 0 0 0 0 0 0
          0 0 0 0 0 0 0 0 0 0 0 0
          0 0 0 0 0 0 0 0 0 0 0 0
          0 0 0 0 0 0 0 0 0 0 0 0
          0 0 0 0 0 0 0 0 0 0 0 0
          0 0 0 0 0 0 0 0 0 0 0 0
          0 0 0 0 0 0 0 0 0 0 0 0
          0 0 0 0 0 0 0 0 0 0 0
        </DataArray>
        <DataArray type="Float32" Name="relativePerm_w" NumberOfComponents="1" format="ascii">
          0.101686 0.113667 0.123714 0.126614 0.120093 0.101726 0.0739767 0.038084 0.000155371 0 0 0
          0 0 0 0 1 1 1 1 1 1 1 1
          1 1 1 1 1 1 1 1 1 1 1 1
          1 1 1 1 1 1 1 1 1 1 1 1
          1 1 1 1 1 1 1 1 1 1 1 1
          1 1 1 1 1 1 1 1 1 1 1 1
          1 1 1 1 1 1 1 1 1 1 1 1
          1 1 1 1 1 1 1 1 1 1 1 1
          1 1 1 1 1 1 1 1 1 1 1 1
          1 1 1 1 1 1 1 1 1 1 1 1
          1 1 1 1 1 1 1 1 1 1 1 1
          1 1 1 1 1 1 1 1 1 1 1 1
          1 1 1 1 1 1 1 1 1 1 1 1
          1 1 1 1 1 1 1 1 1 1 1 1
          1 1 1 1 1 1 1 1 1 1 1 1
          1 1 1 1 1 1 1 1 1 1 1 1
          1 1 1 1 1 1 1 1 1 1 1 1
          1 1 1 1 1 1 1 1 1 1 1 1
          1 1 1 1 1 1 1 1 1 1 1 1
          1 1 1 1 1 1 1 1 1 1 1 1
          1 1 1 1 1 1 1 1 1 1 1
        </DataArray>
        <DataArray type="Float32" Name="relativePerm_n" NumberOfComponents="1" format="ascii">
          0.306025 0.284842 0.268696 0.264278 0.27436 0.305951 0.365698 0.4825 0.931954 1 1 1
          1 1 1 1 0 0 0 0 0 0 0 0
          0 0 0 0 0 0 0 0 0 0 0 0
          0 0 0 0 0 0 0 0 0 0 0 0
          0 0 0 0 0 0 0 0 0 0 0 0
          0 0 0 0 0 0 0 0 0 0 0 0
          0 0 0 0 0 0 0 0 0 0 0 0
          0 0 0 0 0 0 0 0 0 0 0 0
          0 0 0 0 0 0 0 0 0 0 0 0
          0 0 0 0 0 0 0 0 0 0 0 0
          0 0 0 0 0 0 0 0 0 0 0 0
          0 0 0 0 0 0 0 0 0 0 0 0
          0 0 0 0 0 0 0 0 0 0 0 0
          0 0 0 0 0 0 0 0 0 0 0 0
          0 0 0 0 0 0 0 0 0 0 0 0
          0 0 0 0 0 0 0 0 0 0 0 0
          0 0 0 0 0 0 0 0 0 0 0 0
          0 0 0 0 0 0 0 0 0 0 0 0
          0 0 0 0 0 0 0 0 0 0 0 0
          0 0 0 0 0 0 0 0 0 0 0 0
          0 0 0 0 0 0 0 0 0 0 0
        </DataArray>
        <DataArray type="Float32" Name="porosity" NumberOfComponents="1" format="ascii">
          0.558 0.558 0.558 0.558 0.558 0.558 0.558 0.558 0.558 0.558 0.558 0.558
          0.558 0.558 0.558 0.558 0.558 0.558 0.558 0.558 0.558 0.558 0.558 0.558
          0.558 0.558 0.558 0.558 0.558 0.558 0.558 0.558 0.558 0.558 0.558 0.558
          0.558 0.558 0.558 0.558 0.558 0.558 0.558 0.558 0.558 0.558 0.558 0.558
          0.558 0.558 0.558 0.558 0.558 0.558 0.558 0.558 0.558 0.558 0.558 0.558
          0.558 0.558 0.558 0.558 0.558 0.558 0.558 0.558 0.558 0.558 0.558 0.558
          0.558 0.558 0.558 0.558 0.558 0.558 0.558 0.558 0.558 0.558 0.558 0.558
          0.558 0.558 0.558 0.558 0.558 0.558 0.558 0.558 0.558 0.558 0.558 0.558
          0.558 0.558 0.558 0.558 0.558 0.558 0.558 0.558 0.558 0.558 0.558 0.558
          0.558 0.558 0.558 0.558 0.558 0.558 0.558 0.558 0.558 0.558 0.558 0.558
          0.558 0.558 0.558 0.558 0.558 0.558 0.558 0.558 0.558 0.558 0.558 0.558
          0.558 0.558 0.558 0.558 0.558 0.558 0.558 0.558 0.558 0.558 0.558 0.558
          0.558 0.558 0.558 0.558 0.558 0.558 0.558 0.558 0.558 0.558 0.558 0.558
          0.558 0.558 0.558 0.558 0.558 0.558 0.558 0.558 0.558 0.558 0.558 0.558
          0.558 0.558 0.558 0.558 0.558 0.558 0.558 0.558 0.558 0.558 0.558 0.558
          0.558 0.558 0.558 0.558 0.558 0.558 0.558 0.558 0.558 0.558 0.558 0.558
          0.558 0.558 0.558 0.558 0.558 0.558 0.558 0.558 0.558 0.558 0.558 0.558
          0.558 0.558 0.558 0.558 0.558 0.558 0.558 0.558 0.558 0.558 0.558 0.558
          0.558 0.558 0.558 0.558 0.558 0.558 0.558 0.558 0.558 0.558 0.558 0.558
          0.558 0.558 0.558 0.558 0.558 0.558 0.558 0.558 0.558 0.558 0.558 0.558
          0.558 0.558 0.558 0.558 0.558 0.558 0.558 0.558 0.558 0.558 0.558
        </DataArray>
        <DataArray type="Float32" Name="filterVelocity_w" NumberOfComponents="1" format="ascii">
          3.82134e-05 0.000140731 0.000418123 0.000722886 0.00107478 0.00133592 0.00154512 0.00483375 0.00501636 0.00395473 0 0
          0 0 0 0 0.296533 0.296584 0.296634 0.296634 0.296584 0.296584 0.296634 0.296634
          0.296634 0.296634 0.296634 0.296634 0.296634 0.296681 0.296634 0.296586 0.296634 0.296634 0.296634 0.29668
          0.296634 0.296588 0.296679 0.296634 0.296589 0.296634 0.296634 0.296634 0.296634 0.296634 0.296678 0.296634
          0.296591 0.296677 0.296677 0.296591 0.296591 0.296634 0.296635 0.296635 0.296634 0.296634 0.296634 0.296634
          0.296634 0.296634 0.296634 0.296674 0.296634 0.296594 0.296634 0.296634 0.296634 0.296634 0.296634 0.296634
          0.296634 0.296634 0.296634 0.296634 0.296634 0.296671 0.296634 0.296597 0.296634 0.296598 0.296598 0.296634
          0.29667 0.296634 0.296599 0.296634 0.296634 0.296634 0.296668 0.296635 0.2966 0.296634 0.296634 0.296634
          0.296667 0.296634 0.296602 0.296634 0.296634 0.296634 0.296634 0.296666 0.296634 0.296603 0.296634 0.296634
          0.296634 0.296634 0.296664 0.296634 0.296604 0.296634 0.296634 0.296634 0.296663 0.296634 0.296606 0.296634
          0.296634 0.296634 0.296634 0.296634 0.296634 0.296634 0.296634 0.296661 0.29666 0.296608 0.296608 0.296634
          0.29666 0.296634 0.296609 0.296659 0.296659 0.29661 0.296634 0.296634 0.29661 0.296634 0.296634 0.296657
          0.296657 0.296634 0.296612 0.296612 0.296634 0.296634 0.296634 0.296634 0.296655 0.296634 0.296613 0.296655
          0.296655 0.296634 0.296614 0.296614 0.296654 0.296634 0.296615 0.296634 0.296634 0.296634 0.296634 0.296652
          0.296652 0.296617 0.296617 0.296651 0.296651 0.296617 0.296618 0.296634 0.296634 0.296634 0.296634 0.296634
          0.296634 0.296634 0.296634 0.296634 0.296648 0.296634 0.29662 0.296634 0.296648 0.296634 0.296634 0.296647
          0.296622 0.296622 0.296634 0.296646 0.296646 0.296634 0.296623 0.296623 0.296645 0.296645 0.296624 0.296624
          0.296634 0.296634 0.296634 0.296643 0.296643 0.296625 0.296625 0.296634 0.296634 0.296634 0.296634 0.296642
          0.296634 0.296627 0.296634 0.296634 0.296634 0.296634 0.296634 0.296634 0.296634 0.29664 0.296639 0.296629
          0.296629 0.296639 0.296634 0.296634 0.296634 0.29663 0.296634 0.296634 0.296634 0.296636 0.296634 0.296634
          0.296634 0.296633 0.296635 0.296634 0.296634 0.296634 0.296635 0.296634 0.296634 0.296634 0.296634
        </DataArray>
        <DataArray type="Float32" Name="filterVelocity_n" NumberOfComponents="1" format="ascii">
          0.0655961 0.0654636 0.0680848 0.0714339 0.0729052 0.0723591 0.066791 0.0568793 0.305233 -5.58354 -4.92778 1.34262
          -236.555 1001.01 2803.26 2815.63 1699.4 0 0 0 0 0 0 0
          0 0 0 0 0 0 0 0 0 0 0 0
          0 0 0 0 0 0 0 0 0 0 0 0
          0 0 0 0 0 0 0 0 0 0 0 0
          0 0 0 0 0 0 0 0 0 0 0 0
          0 0 0 0 0 0 0 0 0 0 0 0
          0 0 0 0 0 0 0 0 0 0 0 0
          0 0 0 0 0 0 0 0 0 0 0 0
          0 0 0 0 0 0 0 0 0 0 0 0
          0 0 0 0 0 0 0 0 0 0 0 0
          0 0 0 0 0 0 0 0 0 0 0 0
          0 0 0 0 0 0 0 0 0 0 0 0
          0 0 0 0 0 0 0 0 0 0 0 0
          0 0 0 0 0 0 0 0 0 0 0 0
          0 0 0 0 0 0 0 0 0 0 0 0
          0 0 0 0 0 0 0 0 0 0 0 0
          0 0 0 0 0 0 0 0 0 0 0 0
          0 0 0 0 0 0 0 0 0 0 0 0
          0 0 0 0 0 0 0 0 0 0 0 0
          0 0 0 0 0 0 0 0 0 0 0
        </DataArray>
        <DataArray type="Float32" Name="temperature" NumberOfComponents="1" format="ascii">
          299.75 299.75 299.75 299.75 299.75 299.75 299.75 299.75 299.75 299.75 299.75 299.75
          299.75 299.75 299.75 299.75 299.75 299.75 299.75 299.75 299.75 299.75 299.75 299.75
          299.75 299.75 299.75 299.75 299.75 299.75 299.75 299.75 299.75 299.75 299.75 299.75
          299.75 299.75 299.75 299.75 299.75 299.75 299.75 299.75 299.75 299.75 299.75 299.75
          299.75 299.75 299.75 299.75 299.75 299.75 299.75 299.75 299.75 299.75 299.75 299.75
          299.75 299.75 299.75 299.75 299.75 299.75 299.75 299.75 299.75 299.75 299.75 299.75
          299.75 299.75 299.75 299.75 299.75 299.75 299.75 299.75 299.75 299.75 299.75 299.75
          299.75 299.75 299.75 299.75 299.75 299.75 299.75 299.75 299.75 299.75 299.75 299.75
          299.75 299.75 299.75 299.75 299.75 299.75 299.75 299.75 299.75 299.75 299.75 299.75
          299.75 299.75 299.75 299.75 299.75 299.75 299.75 299.75 299.75 299.75 299.75 299.75
          299.75 299.75 299.75 299.75 299.75 299.75 299.75 299.75 299.75 299.75 299.75 299.75
          299.75 299.75 299.75 299.75 299.75 299.75 299.75 299.75 299.75 299.75 299.75 299.75
          299.75 299.75 299.75 299.75 299.75 299.75 299.75 299.75 299.75 299.75 299.75 299.75
          299.75 299.75 299.75 299.75 299.75 299.75 299.75 299.75 299.75 299.75 299.75 299.75
          299.75 299.75 299.75 299.75 299.75 299.75 299.75 299.75 299.75 299.75 299.75 299.75
          299.75 299.75 299.75 299.75 299.75 299.75 299.75 299.75 299.75 299.75 299.75 299.75
          299.75 299.75 299.75 299.75 299.75 299.75 299.75 299.75 299.75 299.75 299.75 299.75
          299.75 299.75 299.75 299.75 299.75 299.75 299.75 299.75 299.75 299.75 299.75 299.75
          299.75 299.75 299.75 299.75 299.75 299.75 299.75 299.75 299.75 299.75 299.75 299.75
          299.75 299.75 299.75 299.75 299.75 299.75 299.75 299.75 299.75 299.75 299.75 299.75
          299.75 299.75 299.75 299.75 299.75 299.75 299.75 299.75 299.75 299.75 299.75
        </DataArray>
      </PointData>
      <Points>
        <DataArray type="Float32" Name="Coordinates" NumberOfComponents="3" format="ascii">
          0 0 0 0.4 0 0 0.8 0 0 1.2 0 0
          1.6 0 0 2 0 0 2.4 0 0 2.8 0 0
          3.2 0 0 3.6 0 0 4 0 0 4.4 0 0
          4.8 0 0 5.2 0 0 5.6 0 0 6 0 0
          6.4 0 0 6.8 0 0 7.2 0 0 7.6 0 0
          8 0 0 8.4 0 0 8.8 0 0 9.2 0 0
          9.6 0 0 10 0 0 10.4 0 0 10.8 0 0
          11.2 0 0 11.6 0 0 12 0 0 12.4 0 0
          12.8 0 0 13.2 0 0 13.6 0 0 14 0 0
          14.4 0 0 14.8 0 0 15.2 0 0 15.6 0 0
          16 0 0 16.4 0 0 16.8 0 0 17.2 0 0
          17.6 0 0 18 0 0 18.4 0 0 18.8 0 0
          19.2 0 0 19.6 0 0 20 0 0 20.4 0 0
          20.8 0 0 21.2 0 0 21.6 0 0 22 0 0
          22.4 0 0 22.8 0 0 23.2 0 0 23.6 0 0
          24 0 0 24.4 0 0 24.8 0 0 25.2 0 0
          25.6 0 0 26 0 0 26.4 0 0 26.8 0 0
          27.2 0 0 27.6 0 0 28 0 0 28.4 0 0
          28.8 0 0 29.2 0 0 29.6 0 0 30 0 0
          30.4 0 0 30.8 0 0 31.2 0 0 31.6 0 0
          32 0 0 32.4 0 0 32.8 0 0 33.2 0 0
          33.6 0 0 34 0 0 34.4 0 0 34.8 0 0
          35.2 0 0 35.6 0 0 36 0 0 36.4 0 0
          36.8 0 0 37.2 0 0 37.6 0 0 38 0 0
          38.4 0 0 38.8 0 0 39.2 0 0 39.6 0 0
          40 0 0 40.4 0 0 40.8 0 0 41.2 0 0
          41.6 0 0 42 0 0 42.4 0 0 42.8 0 0
          43.2 0 0 43.6 0 0 44 0 0 44.4 0 0
          44.8 0 0 45.2 0 0 45.6 0 0 46 0 0
          46.4 0 0 46.8 0 0 47.2 0 0 47.6 0 0
          48 0 0 48.4 0 0 48.8 0 0 49.2 0 0
          49.6 0 0 50 0 0 50.4 0 0 50.8 0 0
          51.2 0 0 51.6 0 0 52 0 0 52.4 0 0
          52.8 0 0 53.2 0 0 53.6 0 0 54 0 0
          54.4 0 0 54.8 0 0 55.2 0 0 55.6 0 0
          56 0 0 56.4 0 0 56.8 0 0 57.2 0 0
          57.6 0 0 58 0 0 58.4 0 0 58.8 0 0
          59.2 0 0 59.6 0 0 60 0 0 60.4 0 0
          60.8 0 0 61.2 0 0 61.6 0 0 62 0 0
          62.4 0 0 62.8 0 0 63.2 0 0 63.6 0 0
          64 0 0 64.4 0 0 64.8 0 0 65.2 0 0
          65.6 0 0 66 0 0 66.4 0 0 66.8 0 0
          67.2 0 0 67.6 0 0 68 0 0 68.4 0 0
          68.8 0 0 69.2 0 0 69.6 0 0 70 0 0
          70.4 0 0 70.8 0 0 71.2 0 0 71.6 0 0
          72 0 0 72.4 0 0 72.8 0 0 73.2 0 0
          73.6 0 0 74 0 0 74.4 0 0 74.8 0 0
          75.2 0 0 75.6 0 0 76 0 0 76.4 0 0
          76.8 0 0 77.2 0 0 77.6 0 0 78 0 0
          78.4 0 0 78.8 0 0 79.2 0 0 79.6 0 0
          80 0 0 80.4 0 0 80.8 0 0 81.2 0 0
          81.6 0 0 82 0 0 82.4 0 0 82.8 0 0
          83.2 0 0 83.6 0 0 84 0 0 84.4 0 0
          84.8 0 0 85.2 0 0 85.6 0 0 86 0 0
          86.4 0 0 86.8 0 0 87.2 0 0 87.6 0 0
          88 0 0 88.4 0 0 88.8 0 0 89.2 0 0
          89.6 0 0 90 0 0 90.4 0 0 90.8 0 0
          91.2 0 0 91.6 0 0 92 0 0 92.4 0 0
          92.8 0 0 93.2 0 0 93.6 0 0 94 0 0
          94.4 0 0 94.8 0 0 95.2 0 0 95.6 0 0
          96 0 0 96.4 0 0 96.8 0 0 97.2 0 0
          97.6 0 0 98 0 0 98.4 0 0 98.8 0 0
          99.2 0 0 99.6 0 0 100 0 0
        </DataArray>
      </Points>
      <Lines>
        <DataArray type="Int32" Name="connectivity" NumberOfComponents="1" format="ascii">
          0 1 1 2 2 3 3 4 4 5 5 6
          6 7 7 8 8 9 9 10 10 11 11 12
          12 13 13 14 14 15 15 16 16 17 17 18
          18 19 19 20 20 21 21 22 22 23 23 24
          24 25 25 26 26 27 27 28 28 29 29 30
          30 31 31 32 32 33 33 34 34 35 35 36
          36 37 37 38 38 39 39 40 40 41 41 42
          42 43 43 44 44 45 45 46 46 47 47 48
          48 49 49 50 50 51 51 52 52 53 53 54
          54 55 55 56 56 57 57 58 58 59 59 60
          60 61 61 62 62 63 63 64 64 65 65 66
          66 67 67 68 68 69 69 70 70 71 71 72
          72 73 73 74 74 75 75 76 76 77 77 78
          78 79 79 80 80 81 81 82 82 83 83 84
          84 85 85 86 86 87 87 88 88 89 89 90
          90 91 91 92 92 93 93 94 94 95 95 96
          96 97 97 98 98 99 99 100 100 101 101 102
          102 103 103 104 104 105 105 106 106 107 107 108
          108 109 109 110 110 111 111 112 112 113 113 114
          114 115 115 116 116 117 117 118 118 119 119 120
          120 121 121 122 122 123 123 124 124 125 125 126
          126 127 127 128 128 129 129 130 130 131 131 132
          132 133 133 134 134 135 135 136 136 137 137 138
          138 139 139 140 140 141 141 142 142 143 143 144
          144 145 145 146 146 147 147 148 148 149 149 150
          150 151 151 152 152 153 153 154 154 155 155 156
          156 157 157 158 158 159 159 160 160 161 161 162
          162 163 163 164 164 165 165 166 166 167 167 168
          168 169 169 170 170 171 171 172 172 173 173 174
          174 175 175 176 176 177 177 178 178 179 179 180
          180 181 181 182 182 183 183 184 184 185 185 186
          186 187 187 188 188 189 189 190 190 191 191 192
          192 193 193 194 194 195 195 196 196 197 197 198
          198 199 199 200 200 201 201 202 202 203 203 204
          204 205 205 206 206 207 207 208 208 209 209 210
          210 211 211 212 212 213 213 214 214 215 215 216
          216 217 217 218 218 219 219 220 220 221 221 222
          222 223 223 224 224 225 225 226 226 227 227 228
          228 229 229 230 230 231 231 232 232 233 233 234
          234 235 235 236 236 237 237 238 238 239 239 240
          240 241 241 242 242 243 243 244 244 245 245 246
          246 247 247 248 248 249 249 250
        </DataArray>
        <DataArray type="Int32" Name="offsets" NumberOfComponents="1" format="ascii">
          2 4 6 8 10 12 14 16 18 20 22 24
          26 28 30 32 34 36 38 40 42 44 46 48
          50 52 54 56 58 60 62 64 66 68 70 72
          74 76 78 80 82 84 86 88 90 92 94 96
          98 100 102 104 106 108 110 112 114 116 118 120
          122 124 126 128 130 132 134 136 138 140 142 144
          146 148 150 152 154 156 158 160 162 164 166 168
          170 172 174 176 178 180 182 184 186 188 190 192
          194 196 198 200 202 204 206 208 210 212 214 216
          218 220 222 224 226 228 230 232 234 236 238 240
          242 244 246 248 250 252 254 256 258 260 262 264
          266 268 270 272 274 276 278 280 282 284 286 288
          290 292 294 296 298 300 302 304 306 308 310 312
          314 316 318 320 322 324 326 328 330 332 334 336
          338 340 342 344 346 348 350 352 354 356 358 360
          362 364 366 368 370 372 374 376 378 380 382 384
          386 388 390 392 394 396 398 400 402 404 406 408
          410 412 414 416 418 420 422 424 426 428 430 432
          434 436 438 440 442 444 446 448 450 452 454 456
          458 460 462 464 466 468 470 472 474 476 478 480
          482 484 486 488 490 492 494 496 498 500
        </DataArray>
      </Lines>
    </Piece>
  </PolyData>
</VTKFile>
