<?xml version="1.0"?>
<VTKFile type="PolyData" version="0.1" byte_order="LittleEndian">
  <PolyData>
    <Piece NumberOfLines="250" NumberOfPoints="251">
      <PointData Scalars="pressure_w">
        <DataArray type="Float32" Name="pressure_w" NumberOfComponents="1" format="ascii">
          1.66749e+06 1.66746e+06 1.66738e+06 1.66724e+06 1.667e+06 1.66611e+06 1.64985e+06 1.67169e+06 1.6599e+06 1.10954e+06 1.73219e+06 937988
          1.47656e+06 981650 1.20797e+06 2.05449e+06 2.04618e+06 2.03788e+06 2.02958e+06 2.02128e+06 2.01299e+06 2.0047e+06 1.9964e+06 1.98809e+06
          1.9798e+06 1.9715e+06 1.9632e+06 1.9549e+06 1.9466e+06 1.9383e+06 1.93001e+06 1.92171e+06 1.9134e+06 1.9051e+06 1.8968e+06 1.8885e+06
          1.8802e+06 1.87191e+06 1.86361e+06 1.85531e+06 1.84701e+06 1.83872e+06 1.83042e+06 1.82212e+06 1.81382e+06 1.80552e+06 1.79722e+06 1.78892e+06
          1.78062e+06 1.77231e+06 1.76402e+06 1.75572e+06 1.74743e+06 1.73913e+06 1.73082e+06 1.72252e+06 1.71422e+06 1.70592e+06 1.69763e+06 1.68932e+06
          1.68103e+06 1.67273e+06 1.66443e+06 1.65613e+06 1.64783e+06 1.63953e+06 1.63123e+06 1.62293e+06 1.61463e+06 1.60633e+06 1.59803e+06 1.58973e+06
          1.58143e+06 1.57314e+06 1.56483e+06 1.55653e+06 1.54823e+06 1.53993e+06 1.53163e+06 1.52334e+06 1.51504e+06 1.50674e+06 1.49843e+06 1.49013e+06
          1.48184e+06 1.47354e+06 1.46524e+06 1.45694e+06 1.44864e+06 1.44034e+06 1.43204e+06 1.42375e+06 1.41544e+06 1.40714e+06 1.39884e+06 1.39054e+06
          1.38224e+06 1.37395e+06 1.36564e+06 1.35735e+06 1.34905e+06 1.34075e+06 1.33245e+06 1.32415e+06 1.31585e+06 1.30755e+06 1.29925e+06 1.29095e+06
          1.28265e+06 1.27435e+06 1.26605e+06 1.25776e+06 1.24946e+06 1.24116e+06 1.23286e+06 1.22456e+06 1.21626e+06 1.20796e+06 1.19966e+06 1.19136e+06
          1.18306e+06 1.17476e+06 1.16647e+06 1.15816e+06 1.14987e+06 1.14157e+06 1.13327e+06 1.12496e+06 1.11667e+06 1.10837e+06 1.10007e+06 1.09177e+06
          1.08347e+06 1.07517e+06 1.06687e+06 1.05857e+06 1.05027e+06 1.04197e+06 1.03367e+06 1.02538e+06 1.01708e+06 1.00878e+06 1.00048e+06 992179
          983879 975579 967278 958982 950681 942381 934081 925784 917485 909184 900885 892585
          884290 875988 867689 859390 851090 842791 834492 826192 817893 809594 801294 792996
          784696 776396 768097 759798 751498 743199 734901 726601 718301 710002 701702 693403
          685104 676804 668504 660206 651906 643608 635308 627009 618709 610409 602110 593810
          585512 577212 568913 560614 552314 544014 535716 527416 519117 510818 502518 494219
          485919 477621 469321 461021 452722 444423 436123 427824 419525 411226 402926 394626
          386327 378028 369728 361429 353130 344831 336531 328232 319932 311633 303334 295035
          286735 278436 270136 261837 253538 245238 236939 228640 220340 212041 203742 195442
          187143 178844 170544 162245 153946 145646 137347 129048 120748 112449 104150
        </DataArray>
        <DataArray type="Float32" Name="pressure_n" NumberOfComponents="1" format="ascii">
          1.66997e+06 1.66988e+06 1.66977e+06 1.66965e+06 1.66953e+06 1.66933e+06 1.65691e+06 1.67384e+06 1.66199e+06 1.43367e+06 1.91449e+06 187495
          1.52999e+06 1.14656e+06 1.71254e+06 2.13014e+06 2.04618e+06 2.03788e+06 2.02958e+06 2.02128e+06 2.01299e+06 2.0047e+06 1.9964e+06 1.98809e+06
          1.9798e+06 1.9715e+06 1.9632e+06 1.9549e+06 1.9466e+06 1.9383e+06 1.93001e+06 1.92171e+06 1.9134e+06 1.9051e+06 1.8968e+06 1.8885e+06
          1.8802e+06 1.87191e+06 1.86361e+06 1.85531e+06 1.84701e+06 1.83872e+06 1.83042e+06 1.82212e+06 1.81382e+06 1.80552e+06 1.79722e+06 1.78892e+06
          1.78062e+06 1.77231e+06 1.76402e+06 1.75572e+06 1.74743e+06 1.73913e+06 1.73082e+06 1.72252e+06 1.71422e+06 1.70592e+06 1.69763e+06 1.68932e+06
          1.68103e+06 1.67273e+06 1.66443e+06 1.65613e+06 1.64783e+06 1.63953e+06 1.63123e+06 1.62293e+06 1.61463e+06 1.60633e+06 1.59803e+06 1.58973e+06
          1.58143e+06 1.57314e+06 1.56483e+06 1.55653e+06 1.54823e+06 1.53993e+06 1.53163e+06 1.52334e+06 1.51504e+06 1.50674e+06 1.49843e+06 1.49013e+06
          1.48184e+06 1.47354e+06 1.46524e+06 1.45694e+06 1.44864e+06 1.44034e+06 1.43204e+06 1.42375e+06 1.41544e+06 1.40714e+06 1.39884e+06 1.39054e+06
          1.38224e+06 1.37395e+06 1.36564e+06 1.35735e+06 1.34905e+06 1.34075e+06 1.33245e+06 1.32415e+06 1.31585e+06 1.30755e+06 1.29925e+06 1.29095e+06
          1.28265e+06 1.27435e+06 1.26605e+06 1.25776e+06 1.24946e+06 1.24116e+06 1.23286e+06 1.22456e+06 1.21626e+06 1.20796e+06 1.19966e+06 1.19136e+06
          1.18306e+06 1.17476e+06 1.16647e+06 1.15816e+06 1.14987e+06 1.14157e+06 1.13327e+06 1.12496e+06 1.11667e+06 1.10837e+06 1.10007e+06 1.09177e+06
          1.08347e+06 1.07517e+06 1.06687e+06 1.05857e+06 1.05027e+06 1.04197e+06 1.03367e+06 1.02538e+06 1.01708e+06 1.00878e+06 1.00048e+06 992179
          983879 975579 967278 958982 950681 942381 934081 925784 917485 909184 900885 892585
          884290 875988 867689 859390 851090 842791 834492 826192 817893 809594 801294 792996
          784696 776396 768097 759798 751498 743199 734901 726601 718301 710002 701702 693403
          685104 676804 668504 660206 651906 643608 635308 627009 618709 610409 602110 593810
          585512 577212 568913 560614 552314 544014 535716 527416 519117 510818 502518 494219
          485919 477621 469321 461021 452722 444423 436123 427824 419525 411226 402926 394626
          386327 378028 369728 361429 353130 344831 336531 328232 319932 311633 303334 295035
          286735 278436 270136 261837 253538 245238 236939 228640 220340 212041 203742 195442
          187143 178844 170544 162245 153946 145646 137347 129048 120748 112449 104150
        </DataArray>
        <DataArray type="Float32" Name="density_w" NumberOfComponents="1" format="ascii">
          1000 1000 1000 1000 1000 1000 1000 1000 1000 1000 1000 1000
          1000 1000 1000 1000 1000 1000 1000 1000 1000 1000 1000 1000
          1000 1000 1000 1000 1000 1000 1000 1000 1000 1000 1000 1000
          1000 1000 1000 1000 1000 1000 1000 1000 1000 1000 1000 1000
          1000 1000 1000 1000 1000 1000 1000 1000 1000 1000 1000 1000
          1000 1000 1000 1000 1000 1000 1000 1000 1000 1000 1000 1000
          1000 1000 1000 1000 1000 1000 1000 1000 1000 1000 1000 1000
          1000 1000 1000 1000 1000 1000 1000 1000 1000 1000 1000 1000
          1000 1000 1000 1000 1000 1000 1000 1000 1000 1000 1000 1000
          1000 1000 1000 1000 1000 1000 1000 1000 1000 1000 1000 1000
          1000 1000 1000 1000 1000 1000 1000 1000 1000 1000 1000 1000
          1000 1000 1000 1000 1000 1000 1000 1000 1000 1000 1000 1000
          1000 1000 1000 1000 1000 1000 1000 1000 1000 1000 1000 1000
          1000 1000 1000 1000 1000 1000 1000 1000 1000 1000 1000 1000
          1000 1000 1000 1000 1000 1000 1000 1000 1000 1000 1000 1000
          1000 1000 1000 1000 1000 1000 1000 1000 1000 1000 1000 1000
          1000 1000 1000 1000 1000 1000 1000 1000 1000 1000 1000 1000
          1000 1000 1000 1000 1000 1000 1000 1000 1000 1000 1000 1000
          1000 1000 1000 1000 1000 1000 1000 1000 1000 1000 1000 1000
          1000 1000 1000 1000 1000 1000 1000 1000 1000 1000 1000 1000
          1000 1000 1000 1000 1000 1000 1000 1000 1000 1000 1000
        </DataArray>
        <DataArray type="Float32" Name="density_n" NumberOfComponents="1" format="ascii">
          19.405 19.4039 19.4026 19.4012 19.3999 19.3976 19.2532 19.4499 19.3123 16.6592 22.2462 2.17868
          17.7784 13.323 19.8996 24.7521 23.7766 23.6801 23.5837 23.4872 23.3909 23.2946 23.1981 23.1016
          23.0052 22.9087 22.8123 22.7158 22.6194 22.523 22.4266 22.3302 22.2336 22.1372 22.0408 21.9443
          21.8479 21.7516 21.6551 21.5586 21.4622 21.3658 21.2694 21.1729 21.0765 20.98 20.8836 20.7872
          20.6907 20.5942 20.4979 20.4014 20.305 20.2086 20.1121 20.0157 19.9191 19.8227 19.7264 19.6298
          19.5335 19.437 19.3406 19.2442 19.1477 19.0513 18.9548 18.8584 18.7619 18.6655 18.5691 18.4726
          18.3762 18.2798 18.1833 18.0868 17.9904 17.8939 17.7975 17.7011 17.6047 17.5082 17.4117 17.3153
          17.2189 17.1225 17.026 16.9296 16.8332 16.7367 16.6403 16.5439 16.4474 16.3509 16.2545 16.158
          16.0616 15.9652 15.8687 15.7724 15.6759 15.5795 15.483 15.3866 15.2901 15.1937 15.0972 15.0008
          14.9044 14.808 14.7115 14.6151 14.5187 14.4222 14.3258 14.2293 14.1329 14.0365 13.94 13.8436
          13.7471 13.6507 13.5543 13.4578 13.3614 13.265 13.1685 13.072 12.9756 12.8792 12.7828 12.6863
          12.5899 12.4934 12.397 12.3006 12.2042 12.1077 12.0112 11.9148 11.8184 11.7219 11.6255 11.5291
          11.4326 11.3362 11.2397 11.1433 11.0469 10.9504 10.854 10.7576 10.6611 10.5647 10.4682 10.3718
          10.2754 10.1789 10.0825 9.98608 9.88964 9.7932 9.69676 9.60032 9.50389 9.40745 9.311 9.21458
          9.11814 9.0217 8.92526 8.82882 8.73238 8.63594 8.53953 8.44307 8.34663 8.25019 8.15375 8.05731
          7.96088 7.86444 7.768 7.67156 7.57512 7.4787 7.38225 7.28582 7.18937 7.09293 6.99649 6.90005
          6.80362 6.70718 6.61074 6.51431 6.41787 6.32143 6.22499 6.12856 6.03212 5.93568 5.83924 5.7428
          5.64637 5.54993 5.45349 5.35705 5.26061 5.16418 5.06774 4.9713 4.87486 4.77843 4.68198 4.58554
          4.48911 4.39267 4.29623 4.19979 4.10335 4.00692 3.91048 3.81404 3.7176 3.62116 3.52473 3.42829
          3.33185 3.23541 3.13897 3.04254 2.9461 2.84966 2.75322 2.65679 2.56035 2.46391 2.36747 2.27103
          2.17459 2.07816 1.98172 1.88528 1.78884 1.6924 1.59597 1.49953 1.40309 1.30665 1.21022
        </DataArray>
        <DataArray type="Float32" Name="saturation_w" NumberOfComponents="1" format="ascii">
          0.362878 0.404069 0.423983 0.416647 0.335185 0.0918749 -0.0285191 0.603596 0.650426 -5.0222 -2.78843 4.10522
          -0.758863 -2.51466 -7.8641 -1.1088 1 1 1 1 1 1 1 1
          1 1 1 1 1 1 1 1 1 1 1 1
          1 1 1 1 1 1 1 1 1 1 1 1
          1 1 1 1 1 1 1 1 1 1 1 1
          1 1 1 1 1 1 1 1 1 1 1 1
          1 1 1 1 1 1 1 1 1 1 1 1
          1 1 1 1 1 1 1 1 1 1 1 1
          1 1 1 1 1 1 1 1 1 1 1 1
          1 1 1 1 1 1 1 1 1 1 1 1
          1 1 1 1 1 1 1 1 1 1 1 1
          1 1 1 1 1 1 1 1 1 1 1 1
          1 1 1 1 1 1 1 1 1 1 1 1
          1 1 1 1 1 1 1 1 1 1 1 1
          1 1 1 1 1 1 1 1 1 1 1 1
          1 1 1 1 1 1 1 1 1 1 1 1
          1 1 1 1 1 1 1 1 1 1 1 1
          1 1 1 1 1 1 1 1 1 1 1 1
          1 1 1 1 1 1 1 1 1 1 1 1
          1 1 1 1 1 1 1 1 1 1 1 1
          1 1 1 1 1 1 1 1 1 1 1
        </DataArray>
        <DataArray type="Float32" Name="saturation_n" NumberOfComponents="1" format="ascii">
          0.637122 0.595931 0.576017 0.583353 0.664815 0.908125 1.02852 0.396404 0.349574 6.0222 3.78843 -3.10522
          1.75886 3.51466 8.8641 2.1088 0 0 0 0 0 0 0 0
          0 0 0 0 0 0 0 0 0 0 0 0
          0 0 0 0 0 0 0 0 0 0 0 0
          0 0 0 0 0 0 0 0 0 0 0 0
          0 0 0 0 0 0 0 0 0 0 0 0
          0 0 0 0 0 0 0 0 0 0 0 0
          0 0 0 0 0 0 0 0 0 0 0 0
          0 0 0 0 0 0 0 0 0 0 0 0
          0 0 0 0 0 0 0 0 0 0 0 0
          0 0 0 0 0 0 0 0 0 0 0 0
          0 0 0 0 0 0 0 0 0 0 0 0
          0 0 0 0 0 0 0 0 0 0 0 0
          0 0 0 0 0 0 0 0 0 0 0 0
          0 0 0 0 0 0 0 0 0 0 0 0
          0 0 0 0 0 0 0 0 0 0 0 0
          0 0 0 0 0 0 0 0 0 0 0 0
          0 0 0 0 0 0 0 0 0 0 0 0
          0 0 0 0 0 0 0 0 0 0 0 0
          0 0 0 0 0 0 0 0 0 0 0 0
          0 0 0 0 0 0 0 0 0 0 0
        </DataArray>
        <DataArray type="Float32" Name="relativePerm_w" NumberOfComponents="1" format="ascii">
          0.0449164 0.0612569 0.0704087 0.066938 0.0357458 0.000900969 0 0.198008 0.247394 0 0 1
          0 0 0 0 1 1 1 1 1 1 1 1
          1 1 1 1 1 1 1 1 1 1 1 1
          1 1 1 1 1 1 1 1 1 1 1 1
          1 1 1 1 1 1 1 1 1 1 1 1
          1 1 1 1 1 1 1 1 1 1 1 1
          1 1 1 1 1 1 1 1 1 1 1 1
          1 1 1 1 1 1 1 1 1 1 1 1
          1 1 1 1 1 1 1 1 1 1 1 1
          1 1 1 1 1 1 1 1 1 1 1 1
          1 1 1 1 1 1 1 1 1 1 1 1
          1 1 1 1 1 1 1 1 1 1 1 1
          1 1 1 1 1 1 1 1 1 1 1 1
          1 1 1 1 1 1 1 1 1 1 1 1
          1 1 1 1 1 1 1 1 1 1 1 1
          1 1 1 1 1 1 1 1 1 1 1 1
          1 1 1 1 1 1 1 1 1 1 1 1
          1 1 1 1 1 1 1 1 1 1 1 1
          1 1 1 1 1 1 1 1 1 1 1 1
          1 1 1 1 1 1 1 1 1 1 1 1
          1 1 1 1 1 1 1 1 1 1 1
        </DataArray>
        <DataArray type="Float32" Name="relativePerm_n" NumberOfComponents="1" format="ascii">
          0.45471 0.400149 0.374805 0.384061 0.492926 0.865672 1 0.180109 0.140217 1 1 0
          1 1 1 1 0 0 0 0 0 0 0 0
          0 0 0 0 0 0 0 0 0 0 0 0
          0 0 0 0 0 0 0 0 0 0 0 0
          0 0 0 0 0 0 0 0 0 0 0 0
          0 0 0 0 0 0 0 0 0 0 0 0
          0 0 0 0 0 0 0 0 0 0 0 0
          0 0 0 0 0 0 0 0 0 0 0 0
          0 0 0 0 0 0 0 0 0 0 0 0
          0 0 0 0 0 0 0 0 0 0 0 0
          0 0 0 0 0 0 0 0 0 0 0 0
          0 0 0 0 0 0 0 0 0 0 0 0
          0 0 0 0 0 0 0 0 0 0 0 0
          0 0 0 0 0 0 0 0 0 0 0 0
          0 0 0 0 0 0 0 0 0 0 0 0
          0 0 0 0 0 0 0 0 0 0 0 0
          0 0 0 0 0 0 0 0 0 0 0 0
          0 0 0 0 0 0 0 0 0 0 0 0
          0 0 0 0 0 0 0 0 0 0 0 0
          0 0 0 0 0 0 0 0 0 0 0 0
          0 0 0 0 0 0 0 0 0 0 0
        </DataArray>
        <DataArray type="Float32" Name="porosity" NumberOfComponents="1" format="ascii">
          0.558 0.558 0.558 0.558 0.558 0.558 0.558 0.558 0.558 0.558 0.558 0.558
          0.558 0.558 0.558 0.558 0.558 0.558 0.558 0.558 0.558 0.558 0.558 0.558
          0.558 0.558 0.558 0.558 0.558 0.558 0.558 0.558 0.558 0.558 0.558 0.558
          0.558 0.558 0.558 0.558 0.558 0.558 0.558 0.558 0.558 0.558 0.558 0.558
          0.558 0.558 0.558 0.558 0.558 0.558 0.558 0.558 0.558 0.558 0.558 0.558
          0.558 0.558 0.558 0.558 0.558 0.558 0.558 0.558 0.558 0.558 0.558 0.558
          0.558 0.558 0.558 0.558 0.558 0.558 0.558 0.558 0.558 0.558 0.558 0.558
          0.558 0.558 0.558 0.558 0.558 0.558 0.558 0.558 0.558 0.558 0.558 0.558
          0.558 0.558 0.558 0.558 0.558 0.558 0.558 0.558 0.558 0.558 0.558 0.558
          0.558 0.558 0.558 0.558 0.558 0.558 0.558 0.558 0.558 0.558 0.558 0.558
          0.558 0.558 0.558 0.558 0.558 0.558 0.558 0.558 0.558 0.558 0.558 0.558
          0.558 0.558 0.558 0.558 0.558 0.558 0.558 0.558 0.558 0.558 0.558 0.558
          0.558 0.558 0.558 0.558 0.558 0.558 0.558 0.558 0.558 0.558 0.558 0.558
          0.558 0.558 0.558 0.558 0.558 0.558 0.558 0.558 0.558 0.558 0.558 0.558
          0.558 0.558 0.558 0.558 0.558 0.558 0.558 0.558 0.558 0.558 0.558 0.558
          0.558 0.558 0.558 0.558 0.558 0.558 0.558 0.558 0.558 0.558 0.558 0.558
          0.558 0.558 0.558 0.558 0.558 0.558 0.558 0.558 0.558 0.558 0.558 0.558
          0.558 0.558 0.558 0.558 0.558 0.558 0.558 0.558 0.558 0.558 0.558 0.558
          0.558 0.558 0.558 0.558 0.558 0.558 0.558 0.558 0.558 0.558 0.558 0.558
          0.558 0.558 0.558 0.558 0.558 0.558 0.558 0.558 0.558 0.558 0.558 0.558
          0.558 0.558 0.558 0.558 0.558 0.558 0.558 0.558 0.558 0.558 0.558
        </DataArray>
        <DataArray type="Float32" Name="filterVelocity_w" NumberOfComponents="1" format="ascii">
          0.000181152 0.000557996 0.00100799 0.00166481 0.00291186 0.00288765 -0.0747827 -0.0216423 0.410645 0.453717 0 0
          0 0 0 0 0.108087 0.108071 0.108064 0.108049 0.108011 0.108041 0.108101 0.108063
          0.108066 0.1081 0.108071 0.108071 0.108074 0.108031 0.108042 0.108108 0.108104 0.108059 0.108071 0.108088
          0.108031 0.108049 0.108081 0.108052 0.10806 0.108071 0.10807 0.108069 0.10807 0.108078 0.10806 0.10807
          0.108107 0.108054 0.108044 0.10807 0.108061 0.10808 0.10808 0.108095 0.108095 0.108043 0.108071 0.108074
          0.108046 0.108077 0.10807 0.108076 0.108071 0.10807 0.108082 0.10807 0.108059 0.108059 0.108073 0.10807
          0.108059 0.108083 0.108091 0.10807 0.108076 0.108071 0.108054 0.108071 0.10808 0.108079 0.108084 0.10807
          0.108048 0.108054 0.108089 0.108075 0.108059 0.108075 0.108062 0.108067 0.108088 0.10807 0.108072 0.108078
          0.10805 0.10807 0.10807 0.108064 0.10807 0.108058 0.108086 0.10808 0.108063 0.108077 0.108073 0.108063
          0.108068 0.108073 0.108061 0.108058 0.108081 0.10807 0.108074 0.108077 0.108061 0.108074 0.108064 0.10807
          0.108078 0.108059 0.10807 0.108072 0.108062 0.108076 0.108084 0.10807 0.108058 0.10807 0.108076 0.10807
          0.10807 0.108062 0.108069 0.10807 0.108066 0.108078 0.10807 0.108063 0.108076 0.108072 0.108063 0.108071
          0.108075 0.108077 0.108063 0.108067 0.108078 0.108073 0.108063 0.108061 0.108074 0.108076 0.10807 0.108058
          0.108065 0.108076 0.108067 0.10807 0.108072 0.10807 0.108069 0.10807 0.108069 0.108072 0.10807 0.108066
          0.108072 0.108072 0.10807 0.10807 0.10807 0.108064 0.108069 0.108076 0.108071 0.10807 0.10807 0.10807
          0.10807 0.108072 0.108069 0.108069 0.108068 0.108069 0.10807 0.108071 0.108074 0.108071 0.108071 0.108068
          0.108068 0.10807 0.108068 0.10807 0.108073 0.10807 0.108069 0.10807 0.10807 0.108072 0.10807 0.108069
          0.108069 0.10807 0.108072 0.108071 0.10807 0.10807 0.10807 0.10807 0.108069 0.10807 0.108071 0.10807
          0.10807 0.10807 0.10807 0.10807 0.108069 0.10807 0.108071 0.10807 0.10807 0.10807 0.108069 0.10807
          0.108071 0.10807 0.10807 0.10807 0.10807 0.10807 0.10807 0.10807 0.10807 0.10807 0.10807 0.10807
          0.10807 0.10807 0.10807 0.10807 0.10807 0.10807 0.10807 0.10807 0.10807 0.10807 0.10807
        </DataArray>
        <DataArray type="Float32" Name="filterVelocity_n" NumberOfComponents="1" format="ascii">
          0.0525672 0.0533003 0.0547257 0.0549401 0.072055 0.851621 0.433711 -0.0805555 1.35514 -4.1829 5.17796 0.151696
          -5.03363 -0.857876 -5.96722 -2.81901 2.28735 0 0 0 0 0 0 0
          0 0 0 0 0 0 0 0 0 0 0 0
          0 0 0 0 0 0 0 0 0 0 0 0
          0 0 0 0 0 0 0 0 0 0 0 0
          0 0 0 0 0 0 0 0 0 0 0 0
          0 0 0 0 0 0 0 0 0 0 0 0
          0 0 0 0 0 0 0 0 0 0 0 0
          0 0 0 0 0 0 0 0 0 0 0 0
          0 0 0 0 0 0 0 0 0 0 0 0
          0 0 0 0 0 0 0 0 0 0 0 0
          0 0 0 0 0 0 0 0 0 0 0 0
          0 0 0 0 0 0 0 0 0 0 0 0
          0 0 0 0 0 0 0 0 0 0 0 0
          0 0 0 0 0 0 0 0 0 0 0 0
          0 0 0 0 0 0 0 0 0 0 0 0
          0 0 0 0 0 0 0 0 0 0 0 0
          0 0 0 0 0 0 0 0 0 0 0 0
          0 0 0 0 0 0 0 0 0 0 0 0
          0 0 0 0 0 0 0 0 0 0 0 0
          0 0 0 0 0 0 0 0 0 0 0
        </DataArray>
        <DataArray type="Float32" Name="temperature" NumberOfComponents="1" format="ascii">
          299.75 299.75 299.75 299.75 299.75 299.75 299.75 299.75 299.75 299.75 299.75 299.75
          299.75 299.75 299.75 299.75 299.75 299.75 299.75 299.75 299.75 299.75 299.75 299.75
          299.75 299.75 299.75 299.75 299.75 299.75 299.75 299.75 299.75 299.75 299.75 299.75
          299.75 299.75 299.75 299.75 299.75 299.75 299.75 299.75 299.75 299.75 299.75 299.75
          299.75 299.75 299.75 299.75 299.75 299.75 299.75 299.75 299.75 299.75 299.75 299.75
          299.75 299.75 299.75 299.75 299.75 299.75 299.75 299.75 299.75 299.75 299.75 299.75
          299.75 299.75 299.75 299.75 299.75 299.75 299.75 299.75 299.75 299.75 299.75 299.75
          299.75 299.75 299.75 299.75 299.75 299.75 299.75 299.75 299.75 299.75 299.75 299.75
          299.75 299.75 299.75 299.75 299.75 299.75 299.75 299.75 299.75 299.75 299.75 299.75
          299.75 299.75 299.75 299.75 299.75 299.75 299.75 299.75 299.75 299.75 299.75 299.75
          299.75 299.75 299.75 299.75 299.75 299.75 299.75 299.75 299.75 299.75 299.75 299.75
          299.75 299.75 299.75 299.75 299.75 299.75 299.75 299.75 299.75 299.75 299.75 299.75
          299.75 299.75 299.75 299.75 299.75 299.75 299.75 299.75 299.75 299.75 299.75 299.75
          299.75 299.75 299.75 299.75 299.75 299.75 299.75 299.75 299.75 299.75 299.75 299.75
          299.75 299.75 299.75 299.75 299.75 299.75 299.75 299.75 299.75 299.75 299.75 299.75
          299.75 299.75 299.75 299.75 299.75 299.75 299.75 299.75 299.75 299.75 299.75 299.75
          299.75 299.75 299.75 299.75 299.75 299.75 299.75 299.75 299.75 299.75 299.75 299.75
          299.75 299.75 299.75 299.75 299.75 299.75 299.75 299.75 299.75 299.75 299.75 299.75
          299.75 299.75 299.75 299.75 299.75 299.75 299.75 299.75 299.75 299.75 299.75 299.75
          299.75 299.75 299.75 299.75 299.75 299.75 299.75 299.75 299.75 299.75 299.75 299.75
          299.75 299.75 299.75 299.75 299.75 299.75 299.75 299.75 299.75 299.75 299.75
        </DataArray>
      </PointData>
      <Points>
        <DataArray type="Float32" Name="Coordinates" NumberOfComponents="3" format="ascii">
          0 0 0 0.4 0 0 0.8 0 0 1.2 0 0
          1.6 0 0 2 0 0 2.4 0 0 2.8 0 0
          3.2 0 0 3.6 0 0 4 0 0 4.4 0 0
          4.8 0 0 5.2 0 0 5.6 0 0 6 0 0
          6.4 0 0 6.8 0 0 7.2 0 0 7.6 0 0
          8 0 0 8.4 0 0 8.8 0 0 9.2 0 0
          9.6 0 0 10 0 0 10.4 0 0 10.8 0 0
          11.2 0 0 11.6 0 0 12 0 0 12.4 0 0
          12.8 0 0 13.2 0 0 13.6 0 0 14 0 0
          14.4 0 0 14.8 0 0 15.2 0 0 15.6 0 0
          16 0 0 16.4 0 0 16.8 0 0 17.2 0 0
          17.6 0 0 18 0 0 18.4 0 0 18.8 0 0
          19.2 0 0 19.6 0 0 20 0 0 20.4 0 0
          20.8 0 0 21.2 0 0 21.6 0 0 22 0 0
          22.4 0 0 22.8 0 0 23.2 0 0 23.6 0 0
          24 0 0 24.4 0 0 24.8 0 0 25.2 0 0
          25.6 0 0 26 0 0 26.4 0 0 26.8 0 0
          27.2 0 0 27.6 0 0 28 0 0 28.4 0 0
          28.8 0 0 29.2 0 0 29.6 0 0 30 0 0
          30.4 0 0 30.8 0 0 31.2 0 0 31.6 0 0
          32 0 0 32.4 0 0 32.8 0 0 33.2 0 0
          33.6 0 0 34 0 0 34.4 0 0 34.8 0 0
          35.2 0 0 35.6 0 0 36 0 0 36.4 0 0
          36.8 0 0 37.2 0 0 37.6 0 0 38 0 0
          38.4 0 0 38.8 0 0 39.2 0 0 39.6 0 0
          40 0 0 40.4 0 0 40.8 0 0 41.2 0 0
          41.6 0 0 42 0 0 42.4 0 0 42.8 0 0
          43.2 0 0 43.6 0 0 44 0 0 44.4 0 0
          44.8 0 0 45.2 0 0 45.6 0 0 46 0 0
          46.4 0 0 46.8 0 0 47.2 0 0 47.6 0 0
          48 0 0 48.4 0 0 48.8 0 0 49.2 0 0
          49.6 0 0 50 0 0 50.4 0 0 50.8 0 0
          51.2 0 0 51.6 0 0 52 0 0 52.4 0 0
          52.8 0 0 53.2 0 0 53.6 0 0 54 0 0
          54.4 0 0 54.8 0 0 55.2 0 0 55.6 0 0
          56 0 0 56.4 0 0 56.8 0 0 57.2 0 0
          57.6 0 0 58 0 0 58.4 0 0 58.8 0 0
          59.2 0 0 59.6 0 0 60 0 0 60.4 0 0
          60.8 0 0 61.2 0 0 61.6 0 0 62 0 0
          62.4 0 0 62.8 0 0 63.2 0 0 63.6 0 0
          64 0 0 64.4 0 0 64.8 0 0 65.2 0 0
          65.6 0 0 66 0 0 66.4 0 0 66.8 0 0
          67.2 0 0 67.6 0 0 68 0 0 68.4 0 0
          68.8 0 0 69.2 0 0 69.6 0 0 70 0 0
          70.4 0 0 70.8 0 0 71.2 0 0 71.6 0 0
          72 0 0 72.4 0 0 72.8 0 0 73.2 0 0
          73.6 0 0 74 0 0 74.4 0 0 74.8 0 0
          75.2 0 0 75.6 0 0 76 0 0 76.4 0 0
          76.8 0 0 77.2 0 0 77.6 0 0 78 0 0
          78.4 0 0 78.8 0 0 79.2 0 0 79.6 0 0
          80 0 0 80.4 0 0 80.8 0 0 81.2 0 0
          81.6 0 0 82 0 0 82.4 0 0 82.8 0 0
          83.2 0 0 83.6 0 0 84 0 0 84.4 0 0
          84.8 0 0 85.2 0 0 85.6 0 0 86 0 0
          86.4 0 0 86.8 0 0 87.2 0 0 87.6 0 0
          88 0 0 88.4 0 0 88.8 0 0 89.2 0 0
          89.6 0 0 90 0 0 90.4 0 0 90.8 0 0
          91.2 0 0 91.6 0 0 92 0 0 92.4 0 0
          92.8 0 0 93.2 0 0 93.6 0 0 94 0 0
          94.4 0 0 94.8 0 0 95.2 0 0 95.6 0 0
          96 0 0 96.4 0 0 96.8 0 0 97.2 0 0
          97.6 0 0 98 0 0 98.4 0 0 98.8 0 0
          99.2 0 0 99.6 0 0 100 0 0
        </DataArray>
      </Points>
      <Lines>
        <DataArray type="Int32" Name="connectivity" NumberOfComponents="1" format="ascii">
          0 1 1 2 2 3 3 4 4 5 5 6
          6 7 7 8 8 9 9 10 10 11 11 12
          12 13 13 14 14 15 15 16 16 17 17 18
          18 19 19 20 20 21 21 22 22 23 23 24
          24 25 25 26 26 27 27 28 28 29 29 30
          30 31 31 32 32 33 33 34 34 35 35 36
          36 37 37 38 38 39 39 40 40 41 41 42
          42 43 43 44 44 45 45 46 46 47 47 48
          48 49 49 50 50 51 51 52 52 53 53 54
          54 55 55 56 56 57 57 58 58 59 59 60
          60 61 61 62 62 63 63 64 64 65 65 66
          66 67 67 68 68 69 69 70 70 71 71 72
          72 73 73 74 74 75 75 76 76 77 77 78
          78 79 79 80 80 81 81 82 82 83 83 84
          84 85 85 86 86 87 87 88 88 89 89 90
          90 91 91 92 92 93 93 94 94 95 95 96
          96 97 97 98 98 99 99 100 100 101 101 102
          102 103 103 104 104 105 105 106 106 107 107 108
          108 109 109 110 110 111 111 112 112 113 113 114
          114 115 115 116 116 117 117 118 118 119 119 120
          120 121 121 122 122 123 123 124 124 125 125 126
          126 127 127 128 128 129 129 130 130 131 131 132
          132 133 133 134 134 135 135 136 136 137 137 138
          138 139 139 140 140 141 141 142 142 143 143 144
          144 145 145 146 146 147 147 148 148 149 149 150
          150 151 151 152 152 153 153 154 154 155 155 156
          156 157 157 158 158 159 159 160 160 161 161 162
          162 163 163 164 164 165 165 166 166 167 167 168
          168 169 169 170 170 171 171 172 172 173 173 174
          174 175 175 176 176 177 177 178 178 179 179 180
          180 181 181 182 182 183 183 184 184 185 185 186
          186 187 187 188 188 189 189 190 190 191 191 192
          192 193 193 194 194 195 195 196 196 197 197 198
          198 199 199 200 200 201 201 202 202 203 203 204
          204 205 205 206 206 207 207 208 208 209 209 210
          210 211 211 212 212 213 213 214 214 215 215 216
          216 217 217 218 218 219 219 220 220 221 221 222
          222 223 223 224 224 225 225 226 226 227 227 228
          228 229 229 230 230 231 231 232 232 233 233 234
          234 235 235 236 236 237 237 238 238 239 239 240
          240 241 241 242 242 243 243 244 244 245 245 246
          246 247 247 248 248 249 249 250
        </DataArray>
        <DataArray type="Int32" Name="offsets" NumberOfComponents="1" format="ascii">
          2 4 6 8 10 12 14 16 18 20 22 24
          26 28 30 32 34 36 38 40 42 44 46 48
          50 52 54 56 58 60 62 64 66 68 70 72
          74 76 78 80 82 84 86 88 90 92 94 96
          98 100 102 104 106 108 110 112 114 116 118 120
          122 124 126 128 130 132 134 136 138 140 142 144
          146 148 150 152 154 156 158 160 162 164 166 168
          170 172 174 176 178 180 182 184 186 188 190 192
          194 196 198 200 202 204 206 208 210 212 214 216
          218 220 222 224 226 228 230 232 234 236 238 240
          242 244 246 248 250 252 254 256 258 260 262 264
          266 268 270 272 274 276 278 280 282 284 286 288
          290 292 294 296 298 300 302 304 306 308 310 312
          314 316 318 320 322 324 326 328 330 332 334 336
          338 340 342 344 346 348 350 352 354 356 358 360
          362 364 366 368 370 372 374 376 378 380 382 384
          386 388 390 392 394 396 398 400 402 404 406 408
          410 412 414 416 418 420 422 424 426 428 430 432
          434 436 438 440 442 444 446 448 450 452 454 456
          458 460 462 464 466 468 470 472 474 476 478 480
          482 484 486 488 490 492 494 496 498 500
        </DataArray>
      </Lines>
    </Piece>
  </PolyData>
</VTKFile>
