<?xml version="1.0"?>
<VTKFile type="PolyData" version="0.1" byte_order="LittleEndian">
  <PolyData>
    <Piece NumberOfLines="250" NumberOfPoints="251">
      <PointData Scalars="pressure_wetting">
        <DataArray type="Float32" Name="pressure_wetting" NumberOfComponents="1" format="ascii">
          663569 663547 663497 663428 663344 663247 663138 663018 662886 662744 662591 662428
          662254 662069 661873 661667 661449 661221 660981 660731 660469 660195 659910 659613
          659305 658984 658652 658308 657951 657582 657201 656808 656401 655982 655551 655106
          654649 654179 653696 653199 652689 652166 651630 651080 650516 649939 649348 648744
          648125 647493 646846 646186 645511 644822 644119 643402 642670 641924 641162 640387
          639597 638791 637972 637137 636287 635422 634542 633647 632736 631810 630869 629913
          628941 627953 626950 625930 624895 623845 622778 621695 620596 619482 618350 617203
          616039 614859 613662 612449 611219 609973 608709 607429 606132 604818 603487 602139
          600773 599390 597990 596573 595138 593685 592215 590727 589221 587698 586156 584596
          583019 581423 579808 578176 576525 574855 573167 571460 569735 567990 566227 564444
          562643 560822 558982 557123 555244 553346 551427 549490 547532 545554 543557 541539
          539501 537443 535364 533265 531145 529004 526843 524660 522457 520232 517987 515719
          513431 511120 508788 506434 504058 501660 499240 496798 494333 491845 489335 486802
          484246 481666 479064 476438 473788 471115 468418 465697 462952 460183 457389 454571
          451727 448859 445966 443047 440103 437134 434138 431117 428069 424995 421894 418767
          415612 412430 409221 405984 402719 399427 396105 392755 389377 385969 382532 379065
          375568 372041 368483 364895 361276 357625 353942 350227 346480 342700 338887 335040
          331160 327245 323295 319310 315289 311232 307139 303009 298840 294634 290389 286104
          281780 277415 273009 268560 264069 259535 254956 250332 245662 240945 236180 231366
          226502 221586 216618 211596 206518 201383 196190 190936 185620 180240 174792 169276
          163688 158025 152284 146461 140552 134553 128459 122263 115959 109540 103007
        </DataArray>
        <DataArray type="Float32" Name="pressure_nonwetting" NumberOfComponents="1" format="ascii">
          666186 666098 665999 665892 665775 665650 665515 665372 665220 665058 664887 664707
          664517 664318 664108 663889 663659 663418 663168 662906 662634 662350 662056 661750
          661433 661104 660763 660411 660047 659671 659283 658882 658469 658044 657606 657156
          656693 656217 655728 655226 654711 654183 653641 653086 652518 651936 651341 650732
          650109 649472 648822 648157 647479 646786 646079 645358 644622 643872 643108 642328
          641535 640726 639903 639065 638212 637344 636461 635563 634649 633721 632777 631817
          630842 629852 628846 627824 626786 625733 624664 623579 622477 621360 620227 619077
          617911 616728 615529 614314 613082 611833 610568 609285 607986 606670 605337 603987
          602619 601235 599832 598413 596976 595522 594050 592560 591052 589527 587984 586422
          584843 583245 581629 579995 578342 576671 574982 573273 571546 569800 568035 566251
          564448 562626 560785 558924 557044 555144 553224 551285 549326 547347 545348 543329
          541290 539231 537151 535050 532929 530787 528625 526441 524237 522011 519764 517496
          515206 512894 510561 508206 505829 503430 501009 498566 496100 493611 491100 488566
          486009 483429 480826 478199 475549 472875 470177 467455 464709 461939 459145 456326
          453482 450613 447719 444800 441855 438885 435889 432867 429818 426744 423642 420514
          417359 414177 410968 407730 404465 401172 397850 394500 391121 387713 384275 380808
          377311 373784 370226 366638 363018 359367 355684 351969 348222 344442 340629 336782
          332902 328987 325037 321052 317032 312976 308882 304752 300584 296378 292134 287850
          283526 279161 274756 270308 265818 261284 256706 252083 247414 242698 237934 233121
          228258 223343 218376 213356 208279 203146 197955 192703 187389 182011 176566 171052
          165466 159806 154068 148248 142343 136348 130257 124066 117767 111352 104774
        </DataArray>
        <DataArray type="Float32" Name="density_wetting" NumberOfComponents="1" format="ascii">
          1000 1000 1000 1000 1000 1000 1000 1000 1000 1000 1000 1000
          1000 1000 1000 1000 1000 1000 1000 1000 1000 1000 1000 1000
          1000 1000 1000 1000 1000 1000 1000 1000 1000 1000 1000 1000
          1000 1000 1000 1000 1000 1000 1000 1000 1000 1000 1000 1000
          1000 1000 1000 1000 1000 1000 1000 1000 1000 1000 1000 1000
          1000 1000 1000 1000 1000 1000 1000 1000 1000 1000 1000 1000
          1000 1000 1000 1000 1000 1000 1000 1000 1000 1000 1000 1000
          1000 1000 1000 1000 1000 1000 1000 1000 1000 1000 1000 1000
          1000 1000 1000 1000 1000 1000 1000 1000 1000 1000 1000 1000
          1000 1000 1000 1000 1000 1000 1000 1000 1000 1000 1000 1000
          1000 1000 1000 1000 1000 1000 1000 1000 1000 1000 1000 1000
          1000 1000 1000 1000 1000 1000 1000 1000 1000 1000 1000 1000
          1000 1000 1000 1000 1000 1000 1000 1000 1000 1000 1000 1000
          1000 1000 1000 1000 1000 1000 1000 1000 1000 1000 1000 1000
          1000 1000 1000 1000 1000 1000 1000 1000 1000 1000 1000 1000
          1000 1000 1000 1000 1000 1000 1000 1000 1000 1000 1000 1000
          1000 1000 1000 1000 1000 1000 1000 1000 1000 1000 1000 1000
          1000 1000 1000 1000 1000 1000 1000 1000 1000 1000 1000 1000
          1000 1000 1000 1000 1000 1000 1000 1000 1000 1000 1000 1000
          1000 1000 1000 1000 1000 1000 1000 1000 1000 1000 1000 1000
          1000 1000 1000 1000 1000 1000 1000 1000 1000 1000 1000
        </DataArray>
        <DataArray type="Float32" Name="density_nonwetting" NumberOfComponents="1" format="ascii">
          7.74106 7.74003 7.73889 7.73764 7.73628 7.73482 7.73326 7.7316 7.72983 7.72795 7.72596 7.72387
          7.72166 7.71935 7.71691 7.71436 7.71169 7.7089 7.70598 7.70294 7.69978 7.69648 7.69306 7.68951
          7.68582 7.682 7.67805 7.67395 7.66972 7.66535 7.66084 7.65619 7.65139 7.64645 7.64136 7.63613
          7.63074 7.62521 7.61953 7.6137 7.60771 7.60158 7.59528 7.58884 7.58223 7.57547 7.56855 7.56148
          7.55424 7.54684 7.53928 7.53156 7.52368 7.51563 7.50741 7.49903 7.49048 7.48177 7.47289 7.46383
          7.45461 7.44522 7.43565 7.42591 7.416 7.40591 7.39565 7.38521 7.3746 7.36381 7.35284 7.34169
          7.33036 7.31885 7.30716 7.29529 7.28324 7.271 7.25857 7.24596 7.23316 7.22018 7.20701 7.19365
          7.1801 7.16636 7.15243 7.1383 7.12399 7.10948 7.09477 7.07987 7.06478 7.04948 7.03399 7.0183
          7.00241 6.98632 6.97003 6.95354 6.93684 6.91994 6.90283 6.88552 6.86801 6.85028 6.83235 6.8142
          6.79585 6.77729 6.75851 6.73952 6.72032 6.7009 6.68126 6.66141 6.64134 6.62106 6.60055 6.57982
          6.55887 6.53769 6.5163 6.49467 6.47283 6.45075 6.42845 6.40591 6.38315 6.36016 6.33693 6.31347
          6.28977 6.26584 6.24167 6.21726 6.19262 6.16773 6.1426 6.11723 6.09161 6.06575 6.03964 6.01328
          5.98667 5.95981 5.9327 5.90534 5.87772 5.84984 5.82171 5.79332 5.76466 5.73574 5.70656 5.67712
          5.64741 5.61743 5.58718 5.55665 5.52586 5.49479 5.46344 5.43181 5.39991 5.36772 5.33525 5.30249
          5.26944 5.2361 5.20248 5.16856 5.13434 5.09982 5.06501 5.02989 4.99447 4.95875 4.92271 4.88636
          4.8497 4.81272 4.77543 4.73781 4.69987 4.6616 4.623 4.58407 4.54481 4.50521 4.46526 4.42497
          4.38434 4.34335 4.30201 4.26031 4.21825 4.17583 4.13304 4.08987 4.04633 4.00241 3.9581 3.9134
          3.86831 3.82282 3.77692 3.73062 3.6839 3.63676 3.5892 3.54121 3.49278 3.44391 3.39458 3.3448
          3.29456 3.24384 3.19265 3.14097 3.08879 3.03611 2.98291 2.92919 2.87494 2.82014 2.76478 2.70885
          2.65235 2.59524 2.53753 2.47918 2.4202 2.36055 2.30023 2.2392 2.17745 2.11496 2.05169 1.98761
          1.92271 1.85694 1.79026 1.72264 1.65402 1.58435 1.51358 1.44164 1.36845 1.2939 1.21747
        </DataArray>
        <DataArray type="Float32" Name="saturation_wetting" NumberOfComponents="1" format="ascii">
          0.283732 0.320442 0.349583 0.374323 0.396091 0.41567 0.433542 0.450027 0.465349 0.479671 0.49312 0.505791
          0.517764 0.529104 0.539864 0.550092 0.559827 0.569106 0.577961 0.586419 0.594507 0.602248 0.609664 0.616773
          0.623596 0.630147 0.636444 0.642499 0.648327 0.653941 0.659351 0.664568 0.669603 0.674465 0.679162 0.683704
          0.688097 0.69235 0.696468 0.700458 0.704326 0.708079 0.71172 0.715255 0.718689 0.722025 0.72527 0.728425
          0.731495 0.734483 0.737394 0.740229 0.742991 0.745685 0.748312 0.750874 0.753375 0.755816 0.758199 0.760528
          0.762803 0.765026 0.7672 0.769326 0.771405 0.77344 0.775431 0.77738 0.779288 0.781157 0.782987 0.784781
          0.786539 0.788262 0.789951 0.791607 0.793232 0.794825 0.796388 0.797922 0.799428 0.800906 0.802357 0.803781
          0.80518 0.806554 0.807904 0.80923 0.810533 0.811813 0.813072 0.814309 0.815525 0.81672 0.817896 0.819052
          0.820188 0.821306 0.822406 0.823488 0.824552 0.825599 0.82663 0.827643 0.828641 0.829623 0.830589 0.83154
          0.832477 0.833398 0.834305 0.835198 0.836078 0.836943 0.837795 0.838634 0.83946 0.840274 0.841075 0.841863
          0.84264 0.843404 0.844157 0.844898 0.845628 0.846346 0.847054 0.84775 0.848436 0.849111 0.849775 0.850429
          0.851073 0.851707 0.852331 0.852945 0.853549 0.854143 0.854728 0.855303 0.855869 0.856426 0.856973 0.857512
          0.858041 0.858561 0.859073 0.859575 0.860069 0.860554 0.86103 0.861498 0.861957 0.862408 0.86285 0.863284
          0.863709 0.864126 0.864534 0.864935 0.865326 0.86571 0.866085 0.866452 0.866811 0.867161 0.867503 0.867837
          0.868163 0.86848 0.868789 0.869089 0.869381 0.869665 0.86994 0.870206 0.870464 0.870714 0.870954 0.871186
          0.871409 0.871623 0.871828 0.872024 0.872211 0.872388 0.872556 0.872715 0.872863 0.873002 0.873131 0.87325
          0.873358 0.873456 0.873543 0.87362 0.873685 0.873739 0.873781 0.873811 0.87383 0.873835 0.873828 0.873808
          0.873775 0.873727 0.873666 0.87359 0.873498 0.873391 0.873268 0.873128 0.872971 0.872795 0.872602 0.872388
          0.872155 0.8719 0.871624 0.871324 0.871001 0.870652 0.870277 0.869874 0.869442 0.868979 0.868483 0.867952
          0.867385 0.866779 0.866132 0.86544 0.8647 0.86391 0.863065 0.86216 0.861192 0.860155 0.859041 0.857846
          0.856559 0.855173 0.853676 0.852055 0.850297 0.848384 0.846295 0.844006 0.841492 0.839159 0.86203
        </DataArray>
        <DataArray type="Float32" Name="saturation_nonwetting" NumberOfComponents="1" format="ascii">
          0.716268 0.679558 0.650417 0.625677 0.603909 0.58433 0.566458 0.549973 0.534651 0.520329 0.50688 0.494209
          0.482236 0.470896 0.460136 0.449908 0.440173 0.430894 0.422039 0.413581 0.405493 0.397752 0.390336 0.383227
          0.376404 0.369853 0.363556 0.357501 0.351673 0.346059 0.340649 0.335432 0.330397 0.325535 0.320838 0.316296
          0.311903 0.30765 0.303532 0.299542 0.295674 0.291921 0.28828 0.284745 0.281311 0.277975 0.27473 0.271575
          0.268505 0.265517 0.262606 0.259771 0.257009 0.254315 0.251689 0.249126 0.246625 0.244184 0.241801 0.239472
          0.237197 0.234974 0.2328 0.230674 0.228595 0.22656 0.224569 0.22262 0.220712 0.218843 0.217012 0.215219
          0.213461 0.211738 0.210049 0.208393 0.206768 0.205175 0.203612 0.202078 0.200572 0.199094 0.197643 0.196219
          0.19482 0.193446 0.192096 0.19077 0.189467 0.188187 0.186928 0.185691 0.184475 0.18328 0.182104 0.180948
          0.179812 0.178694 0.177594 0.176512 0.175448 0.174401 0.17337 0.172357 0.171359 0.170377 0.169411 0.16846
          0.167523 0.166602 0.165695 0.164802 0.163922 0.163057 0.162205 0.161366 0.16054 0.159726 0.158925 0.158137
          0.15736 0.156596 0.155843 0.155102 0.154372 0.153654 0.152946 0.15225 0.151564 0.150889 0.150225 0.149571
          0.148927 0.148293 0.147669 0.147055 0.146451 0.145857 0.145272 0.144697 0.144131 0.143574 0.143027 0.142488
          0.141959 0.141439 0.140927 0.140425 0.139931 0.139446 0.13897 0.138502 0.138043 0.137592 0.13715 0.136716
          0.136291 0.135874 0.135466 0.135065 0.134674 0.13429 0.133915 0.133548 0.133189 0.132839 0.132497 0.132163
          0.131837 0.13152 0.131211 0.130911 0.130619 0.130335 0.13006 0.129794 0.129536 0.129286 0.129046 0.128814
          0.128591 0.128377 0.128172 0.127976 0.127789 0.127612 0.127444 0.127285 0.127137 0.126998 0.126869 0.12675
          0.126642 0.126544 0.126457 0.12638 0.126315 0.126261 0.126219 0.126189 0.12617 0.126165 0.126172 0.126192
          0.126225 0.126273 0.126334 0.12641 0.126502 0.126609 0.126732 0.126872 0.127029 0.127205 0.127398 0.127612
          0.127845 0.1281 0.128376 0.128676 0.128999 0.129348 0.129723 0.130126 0.130558 0.131021 0.131517 0.132048
          0.132615 0.133221 0.133868 0.13456 0.1353 0.13609 0.136935 0.13784 0.138808 0.139845 0.140959 0.142154
          0.143441 0.144827 0.146324 0.147945 0.149703 0.151616 0.153705 0.155994 0.158508 0.160841 0.13797
        </DataArray>
        <DataArray type="Float32" Name="relativePerm_wetting" NumberOfComponents="1" format="ascii">
          0.0221671 0.0314144 0.0403406 0.0491212 0.0578255 0.0664842 0.0751093 0.0837032 0.0922623 0.10078 0.109248 0.117656
          0.125996 0.134258 0.142434 0.150515 0.158495 0.166368 0.174128 0.181772 0.189296 0.196698 0.203976 0.211129
          0.218156 0.225057 0.231833 0.238484 0.245013 0.251419 0.257705 0.263872 0.269923 0.27586 0.281684 0.287399
          0.293006 0.298508 0.303908 0.309206 0.314407 0.319512 0.324523 0.329444 0.334275 0.339019 0.343679 0.348257
          0.352754 0.357173 0.361515 0.365782 0.369977 0.374101 0.378155 0.382142 0.386064 0.389921 0.393715 0.397448
          0.401121 0.404736 0.408293 0.411795 0.415243 0.418638 0.42198 0.425272 0.428513 0.431707 0.434853 0.437952
          0.441005 0.444015 0.44698 0.449903 0.452784 0.455623 0.458423 0.461183 0.463905 0.466589 0.469235 0.471845
          0.47442 0.476959 0.479463 0.481934 0.484372 0.486777 0.48915 0.491491 0.493801 0.496081 0.498331 0.500551
          0.502742 0.504905 0.50704 0.509146 0.511226 0.513279 0.515305 0.517305 0.51928 0.521229 0.523153 0.525052
          0.526928 0.528779 0.530606 0.53241 0.534191 0.535949 0.537685 0.539398 0.541089 0.542759 0.544407 0.546033
          0.547639 0.549224 0.550788 0.552331 0.553855 0.555358 0.556841 0.558305 0.559749 0.561174 0.56258 0.563966
          0.565334 0.566683 0.568013 0.569325 0.570618 0.571893 0.573149 0.574388 0.575609 0.576811 0.577996 0.579164
          0.580313 0.581445 0.582559 0.583656 0.584735 0.585797 0.586842 0.587869 0.588879 0.589872 0.590847 0.591805
          0.592746 0.593669 0.594575 0.595464 0.596335 0.597189 0.598026 0.598845 0.599647 0.60043 0.601197 0.601945
          0.602676 0.603388 0.604083 0.604759 0.605417 0.606057 0.606678 0.60728 0.607863 0.608428 0.608973 0.609498
          0.610004 0.61049 0.610956 0.611401 0.611826 0.61223 0.612612 0.612973 0.613312 0.613629 0.613923 0.614194
          0.614441 0.614665 0.614864 0.615039 0.615188 0.615311 0.615407 0.615477 0.615519 0.615532 0.615516 0.61547
          0.615393 0.615285 0.615144 0.61497 0.614761 0.614516 0.614235 0.613916 0.613557 0.613157 0.612715 0.61223
          0.611698 0.611119 0.610491 0.609811 0.609078 0.608288 0.607439 0.606529 0.605553 0.60451 0.603394 0.602203
          0.600932 0.599576 0.598129 0.596587 0.594943 0.59319 0.591321 0.589326 0.587197 0.584923 0.582491 0.579888
          0.577099 0.574107 0.57089 0.567425 0.563686 0.559641 0.555252 0.550473 0.545268 0.540473 0.58904
        </DataArray>
        <DataArray type="Float32" Name="relativePerm_nonwetting" NumberOfComponents="1" format="ascii">
          0.566917 0.513744 0.472908 0.43927 0.410497 0.385302 0.362888 0.342723 0.324427 0.307722 0.292392 0.278268
          0.26521 0.253106 0.241858 0.231383 0.221611 0.212479 0.203931 0.195918 0.188397 0.181327 0.174674 0.168406
          0.162493 0.15691 0.151631 0.146635 0.141903 0.137415 0.133156 0.129109 0.12526 0.121597 0.118108 0.114781
          0.111607 0.108575 0.105678 0.102907 0.100255 0.0977149 0.0952802 0.0929451 0.0907041 0.0885518 0.0864837 0.0844952
          0.082582 0.0807404 0.0789666 0.0772572 0.0756091 0.0740191 0.0724846 0.0710029 0.0695714 0.0681879 0.0668502 0.0655561
          0.0643037 0.0630912 0.0619169 0.060779 0.0596762 0.0586068 0.0575695 0.0565629 0.055586 0.0546374 0.053716 0.0528208
          0.0519508 0.0511049 0.0502824 0.0494823 0.0487038 0.0479461 0.0472085 0.0464902 0.0457906 0.045109 0.0444448 0.0437974
          0.0431662 0.0425508 0.0419505 0.0413649 0.0407935 0.0402358 0.0396915 0.03916 0.0386411 0.0381343 0.0376392 0.0371555
          0.0366829 0.036221 0.0357696 0.0353282 0.0348967 0.0344747 0.034062 0.0336584 0.0332635 0.0328772 0.0324991 0.0321292
          0.0317672 0.0314128 0.0310659 0.0307263 0.0303937 0.0300681 0.0297493 0.0294371 0.0291312 0.0288317 0.0285383 0.0282508
          0.0279693 0.0276934 0.0274231 0.0271583 0.0268988 0.0266445 0.0263953 0.0261512 0.0259119 0.0256774 0.0254477 0.0252225
          0.0250018 0.0247856 0.0245737 0.0243661 0.0241626 0.0239632 0.0237679 0.0235765 0.023389 0.0232053 0.0230253 0.0228491
          0.0226765 0.0225074 0.0223419 0.0221798 0.0220211 0.0218658 0.0217138 0.0215651 0.0214196 0.0212773 0.0211382 0.0210021
          0.0208691 0.0207392 0.0206122 0.0204883 0.0203672 0.0202491 0.0201339 0.0200215 0.019912 0.0198053 0.0197014 0.0196003
          0.019502 0.0194064 0.0193136 0.0192235 0.0191361 0.0190515 0.0189696 0.0188903 0.0188138 0.01874 0.018669 0.0186006
          0.018535 0.0184721 0.0184119 0.0183546 0.0183 0.0182482 0.0181992 0.0181531 0.0181098 0.0180695 0.0180321 0.0179977
          0.0179663 0.0179379 0.0179127 0.0178907 0.0178718 0.0178563 0.0178441 0.0178354 0.0178301 0.0178284 0.0178304 0.0178362
          0.0178459 0.0178596 0.0178773 0.0178994 0.0179258 0.0179568 0.0179924 0.018033 0.0180786 0.0181296 0.018186 0.0182482
          0.0183163 0.0183908 0.0184719 0.0185599 0.0186552 0.0187583 0.0188694 0.0189892 0.0191181 0.0192567 0.0194056 0.0195656
          0.0197373 0.0199217 0.0201197 0.0203324 0.0205608 0.0208065 0.0210708 0.0213554 0.0216623 0.0219937 0.022352 0.0227401
          0.0231615 0.0236199 0.02412 0.0246671 0.0252678 0.0259298 0.0266624 0.0274773 0.0283859 0.0292425 0.0213965
        </DataArray>
        <DataArray type="Float32" Name="porosity" NumberOfComponents="1" format="ascii">
          0.558 0.558 0.558 0.558 0.558 0.558 0.558 0.558 0.558 0.558 0.558 0.558
          0.558 0.558 0.558 0.558 0.558 0.558 0.558 0.558 0.558 0.558 0.558 0.558
          0.558 0.558 0.558 0.558 0.558 0.558 0.558 0.558 0.558 0.558 0.558 0.558
          0.558 0.558 0.558 0.558 0.558 0.558 0.558 0.558 0.558 0.558 0.558 0.558
          0.558 0.558 0.558 0.558 0.558 0.558 0.558 0.558 0.558 0.558 0.558 0.558
          0.558 0.558 0.558 0.558 0.558 0.558 0.558 0.558 0.558 0.558 0.558 0.558
          0.558 0.558 0.558 0.558 0.558 0.558 0.558 0.558 0.558 0.558 0.558 0.558
          0.558 0.558 0.558 0.558 0.558 0.558 0.558 0.558 0.558 0.558 0.558 0.558
          0.558 0.558 0.558 0.558 0.558 0.558 0.558 0.558 0.558 0.558 0.558 0.558
          0.558 0.558 0.558 0.558 0.558 0.558 0.558 0.558 0.558 0.558 0.558 0.558
          0.558 0.558 0.558 0.558 0.558 0.558 0.558 0.558 0.558 0.558 0.558 0.558
          0.558 0.558 0.558 0.558 0.558 0.558 0.558 0.558 0.558 0.558 0.558 0.558
          0.558 0.558 0.558 0.558 0.558 0.558 0.558 0.558 0.558 0.558 0.558 0.558
          0.558 0.558 0.558 0.558 0.558 0.558 0.558 0.558 0.558 0.558 0.558 0.558
          0.558 0.558 0.558 0.558 0.558 0.558 0.558 0.558 0.558 0.558 0.558 0.558
          0.558 0.558 0.558 0.558 0.558 0.558 0.558 0.558 0.558 0.558 0.558 0.558
          0.558 0.558 0.558 0.558 0.558 0.558 0.558 0.558 0.558 0.558 0.558 0.558
          0.558 0.558 0.558 0.558 0.558 0.558 0.558 0.558 0.558 0.558 0.558 0.558
          0.558 0.558 0.558 0.558 0.558 0.558 0.558 0.558 0.558 0.558 0.558 0.558
          0.558 0.558 0.558 0.558 0.558 0.558 0.558 0.558 0.558 0.558 0.558 0.558
          0.558 0.558 0.558 0.558 0.558 0.558 0.558 0.558 0.558 0.558 0.558
        </DataArray>
        <DataArray type="Float32" Name="filterVelocity_wetting" NumberOfComponents="1" format="ascii">
          0.000138137 0.000284831 0.000587418 0.000908165 0.00124635 0.00160093 0.00197074 0.00235454 0.00275115 0.00315935 0.00357799 0.00400597
          0.00444223 0.00488578 0.00533569 0.00579112 0.00625127 0.00671543 0.00718292 0.00765317 0.00812562 0.00859979 0.00907526 0.00955163
          0.0100286 0.0105057 0.0109829 0.0114598 0.0119362 0.012412 0.012887 0.013361 0.0138339 0.0143057 0.0147762 0.0152453
          0.015713 0.0161793 0.016644 0.0171072 0.0175688 0.0180288 0.0184872 0.0189439 0.019399 0.0198525 0.0203043 0.0207544
          0.0212029 0.0216498 0.022095 0.0225386 0.0229806 0.023421 0.0238598 0.024297 0.0247327 0.0251669 0.0255996 0.0260307
          0.0264604 0.0268886 0.0273154 0.0277408 0.0281648 0.0285874 0.0290086 0.0294285 0.0298471 0.0302644 0.0306804 0.0310951
          0.0315086 0.0319208 0.0323319 0.0327418 0.0331505 0.0335581 0.0339645 0.0343698 0.0347741 0.0351772 0.0355793 0.0359804
          0.0363805 0.0367795 0.0371776 0.0375746 0.0379708 0.038366 0.0387602 0.0391536 0.0395461 0.0399377 0.0403284 0.0407183
          0.0411074 0.0414957 0.0418831 0.0422698 0.0426557 0.0430408 0.0434252 0.0438089 0.0441919 0.0445741 0.0449557 0.0453366
          0.0457168 0.0460964 0.0464754 0.0468537 0.0472314 0.0476085 0.0479851 0.048361 0.0487364 0.0491113 0.0494856 0.0498594
          0.0502327 0.0506054 0.0509777 0.0513496 0.0517209 0.0520918 0.0524622 0.0528323 0.0532019 0.0535711 0.0539399 0.0543083
          0.0546763 0.055044 0.0554113 0.0557783 0.0561449 0.0565112 0.0568772 0.057243 0.0576084 0.0579735 0.0583384 0.0587031
          0.0590675 0.0594316 0.0597956 0.0601593 0.0605228 0.0608862 0.0612493 0.0616123 0.0619752 0.0623379 0.0627004 0.0630629
          0.0634252 0.0637875 0.0641496 0.0645117 0.0648737 0.0652357 0.0655976 0.0659595 0.0663214 0.0666833 0.0670452 0.0674071
          0.067769 0.068131 0.0684931 0.0688552 0.0692174 0.0695797 0.0699421 0.0703047 0.0706674 0.0710302 0.0713932 0.0717564
          0.0721198 0.0724834 0.0728472 0.0732113 0.0735756 0.0739402 0.0743051 0.0746703 0.0750358 0.0754017 0.0757679 0.0761345
          0.0765015 0.0768689 0.0772367 0.077605 0.0779738 0.0783431 0.0787128 0.0790831 0.079454 0.0798254 0.0801975 0.0805702
          0.0809435 0.0813175 0.0816922 0.0820677 0.0824439 0.0828209 0.0831987 0.0835774 0.0839569 0.0843374 0.0847188 0.0851011
          0.0854845 0.085869 0.0862545 0.0866412 0.0870291 0.0874181 0.0878085 0.0882001 0.0885932 0.0889876 0.0893835 0.0897809
          0.0901799 0.0905805 0.0909829 0.091387 0.091793 0.0922008 0.0926107 0.0930227 0.0934368 0.0938531 0.0942718 0.0946929
          0.0951166 0.0955429 0.095972 0.096404 0.0968389 0.0972769 0.0977181 0.0981627 0.0986107 0.099061 0.0992864
        </DataArray>
        <DataArray type="Float32" Name="filterVelocity_nonwetting" NumberOfComponents="1" format="ascii">
          0.129477 0.129749 0.130267 0.130736 0.131159 0.131542 0.131887 0.132199 0.13248 0.132732 0.132959 0.133161
          0.133342 0.133502 0.133645 0.133771 0.133882 0.133979 0.134064 0.134138 0.134201 0.134255 0.134301 0.134339
          0.134371 0.134396 0.134416 0.134431 0.134441 0.134448 0.134452 0.134452 0.13445 0.134445 0.134438 0.13443
          0.134421 0.13441 0.134398 0.134386 0.134374 0.134361 0.134348 0.134335 0.134322 0.13431 0.134298 0.134287
          0.134277 0.134267 0.134259 0.134252 0.134246 0.134241 0.134238 0.134237 0.134237 0.134238 0.134242 0.134247
          0.134254 0.134263 0.134275 0.134288 0.134304 0.134321 0.134342 0.134364 0.134389 0.134417 0.134447 0.13448
          0.134515 0.134553 0.134594 0.134638 0.134685 0.134735 0.134788 0.134844 0.134903 0.134966 0.135031 0.1351
          0.135173 0.135249 0.135328 0.135411 0.135498 0.135588 0.135682 0.13578 0.135882 0.135988 0.136098 0.136212
          0.13633 0.136453 0.136579 0.13671 0.136846 0.136986 0.137131 0.13728 0.137434 0.137594 0.137758 0.137927
          0.138101 0.13828 0.138465 0.138655 0.13885 0.139051 0.139258 0.13947 0.139689 0.139913 0.140143 0.14038
          0.140623 0.140872 0.141128 0.141391 0.14166 0.141937 0.14222 0.142511 0.142809 0.143115 0.143428 0.143749
          0.144078 0.144415 0.144761 0.145115 0.145477 0.145849 0.146229 0.146619 0.147018 0.147427 0.147845 0.148274
          0.148713 0.149163 0.149623 0.150095 0.150577 0.151072 0.151578 0.152096 0.152627 0.15317 0.153727 0.154297
          0.15488 0.155478 0.15609 0.156717 0.157359 0.158017 0.158691 0.159382 0.160089 0.160814 0.161557 0.162318
          0.163099 0.163898 0.164718 0.165559 0.166421 0.167305 0.168212 0.169142 0.170097 0.171076 0.172081 0.173113
          0.174172 0.17526 0.176377 0.177524 0.178704 0.179915 0.181161 0.182442 0.183759 0.185113 0.186507 0.187942
          0.189419 0.19094 0.192507 0.194121 0.195786 0.197502 0.199272 0.201098 0.202983 0.20493 0.206941 0.20902
          0.211169 0.213392 0.215693 0.218075 0.220543 0.223101 0.225754 0.228507 0.231365 0.234335 0.237423 0.240636
          0.243981 0.247466 0.2511 0.254893 0.258854 0.262996 0.26733 0.271871 0.276632 0.281631 0.286885 0.292414
          0.298241 0.304389 0.310887 0.317765 0.325057 0.332803 0.341046 0.349836 0.359231 0.369295 0.380104 0.391746
          0.404321 0.417951 0.432775 0.448963 0.466717 0.486282 0.507958 0.532119 0.559233 0.589898 0.606204
        </DataArray>
        <DataArray type="Float32" Name="temperature" NumberOfComponents="1" format="ascii">
          299.75 299.75 299.75 299.75 299.75 299.75 299.75 299.75 299.75 299.75 299.75 299.75
          299.75 299.75 299.75 299.75 299.75 299.75 299.75 299.75 299.75 299.75 299.75 299.75
          299.75 299.75 299.75 299.75 299.75 299.75 299.75 299.75 299.75 299.75 299.75 299.75
          299.75 299.75 299.75 299.75 299.75 299.75 299.75 299.75 299.75 299.75 299.75 299.75
          299.75 299.75 299.75 299.75 299.75 299.75 299.75 299.75 299.75 299.75 299.75 299.75
          299.75 299.75 299.75 299.75 299.75 299.75 299.75 299.75 299.75 299.75 299.75 299.75
          299.75 299.75 299.75 299.75 299.75 299.75 299.75 299.75 299.75 299.75 299.75 299.75
          299.75 299.75 299.75 299.75 299.75 299.75 299.75 299.75 299.75 299.75 299.75 299.75
          299.75 299.75 299.75 299.75 299.75 299.75 299.75 299.75 299.75 299.75 299.75 299.75
          299.75 299.75 299.75 299.75 299.75 299.75 299.75 299.75 299.75 299.75 299.75 299.75
          299.75 299.75 299.75 299.75 299.75 299.75 299.75 299.75 299.75 299.75 299.75 299.75
          299.75 299.75 299.75 299.75 299.75 299.75 299.75 299.75 299.75 299.75 299.75 299.75
          299.75 299.75 299.75 299.75 299.75 299.75 299.75 299.75 299.75 299.75 299.75 299.75
          299.75 299.75 299.75 299.75 299.75 299.75 299.75 299.75 299.75 299.75 299.75 299.75
          299.75 299.75 299.75 299.75 299.75 299.75 299.75 299.75 299.75 299.75 299.75 299.75
          299.75 299.75 299.75 299.75 299.75 299.75 299.75 299.75 299.75 299.75 299.75 299.75
          299.75 299.75 299.75 299.75 299.75 299.75 299.75 299.75 299.75 299.75 299.75 299.75
          299.75 299.75 299.75 299.75 299.75 299.75 299.75 299.75 299.75 299.75 299.75 299.75
          299.75 299.75 299.75 299.75 299.75 299.75 299.75 299.75 299.75 299.75 299.75 299.75
          299.75 299.75 299.75 299.75 299.75 299.75 299.75 299.75 299.75 299.75 299.75 299.75
          299.75 299.75 299.75 299.75 299.75 299.75 299.75 299.75 299.75 299.75 299.75
        </DataArray>
      </PointData>
      <Points>
        <DataArray type="Float32" Name="Coordinates" NumberOfComponents="3" format="ascii">
          0 0 0 0.4 0 0 0.8 0 0 1.2 0 0
          1.6 0 0 2 0 0 2.4 0 0 2.8 0 0
          3.2 0 0 3.6 0 0 4 0 0 4.4 0 0
          4.8 0 0 5.2 0 0 5.6 0 0 6 0 0
          6.4 0 0 6.8 0 0 7.2 0 0 7.6 0 0
          8 0 0 8.4 0 0 8.8 0 0 9.2 0 0
          9.6 0 0 10 0 0 10.4 0 0 10.8 0 0
          11.2 0 0 11.6 0 0 12 0 0 12.4 0 0
          12.8 0 0 13.2 0 0 13.6 0 0 14 0 0
          14.4 0 0 14.8 0 0 15.2 0 0 15.6 0 0
          16 0 0 16.4 0 0 16.8 0 0 17.2 0 0
          17.6 0 0 18 0 0 18.4 0 0 18.8 0 0
          19.2 0 0 19.6 0 0 20 0 0 20.4 0 0
          20.8 0 0 21.2 0 0 21.6 0 0 22 0 0
          22.4 0 0 22.8 0 0 23.2 0 0 23.6 0 0
          24 0 0 24.4 0 0 24.8 0 0 25.2 0 0
          25.6 0 0 26 0 0 26.4 0 0 26.8 0 0
          27.2 0 0 27.6 0 0 28 0 0 28.4 0 0
          28.8 0 0 29.2 0 0 29.6 0 0 30 0 0
          30.4 0 0 30.8 0 0 31.2 0 0 31.6 0 0
          32 0 0 32.4 0 0 32.8 0 0 33.2 0 0
          33.6 0 0 34 0 0 34.4 0 0 34.8 0 0
          35.2 0 0 35.6 0 0 36 0 0 36.4 0 0
          36.8 0 0 37.2 0 0 37.6 0 0 38 0 0
          38.4 0 0 38.8 0 0 39.2 0 0 39.6 0 0
          40 0 0 40.4 0 0 40.8 0 0 41.2 0 0
          41.6 0 0 42 0 0 42.4 0 0 42.8 0 0
          43.2 0 0 43.6 0 0 44 0 0 44.4 0 0
          44.8 0 0 45.2 0 0 45.6 0 0 46 0 0
          46.4 0 0 46.8 0 0 47.2 0 0 47.6 0 0
          48 0 0 48.4 0 0 48.8 0 0 49.2 0 0
          49.6 0 0 50 0 0 50.4 0 0 50.8 0 0
          51.2 0 0 51.6 0 0 52 0 0 52.4 0 0
          52.8 0 0 53.2 0 0 53.6 0 0 54 0 0
          54.4 0 0 54.8 0 0 55.2 0 0 55.6 0 0
          56 0 0 56.4 0 0 56.8 0 0 57.2 0 0
          57.6 0 0 58 0 0 58.4 0 0 58.8 0 0
          59.2 0 0 59.6 0 0 60 0 0 60.4 0 0
          60.8 0 0 61.2 0 0 61.6 0 0 62 0 0
          62.4 0 0 62.8 0 0 63.2 0 0 63.6 0 0
          64 0 0 64.4 0 0 64.8 0 0 65.2 0 0