<?xml version="1.0"?>
<VTKFile type="PolyData" version="0.1" byte_order="LittleEndian">
  <PolyData>
    <Piece NumberOfLines="250" NumberOfPoints="251">
      <PointData Scalars="pressure_w">
        <DataArray type="Float32" Name="pressure_w" NumberOfComponents="1" format="ascii">
          974888 974851 974771 974662 974531 974380 974211 974024 973819 973598 973360 973105
          972834 972545 972239 971917 971576 971219 970843 970450 970039 969610 969162 968696
          968211 967708 967186 966644 966084 965504 964905 964286 963647 962988 962310 961611
          960893 960153 959394 958614 957813 956991 956148 955285 954400 953494 952567 951618
          950648 949656 948642 947607 946549 945470 944368 943244 942098 940929 939738 938524
          937288 936028 934746 933440 932112 930760 929385 927987 926565 925119 923650 922157
          920640 919099 917534 915944 914331 912693 911031 909344 907632 905896 904135 902349
          900537 898701 896839 894952 893040 891102 889138 887148 885133 883092 881024 878930
          876810 874664 872491 870291 868065 865812 863532 861225 858890 856529 854140 851723
          849279 846807 844307 841779 839223 836638 834026 831385 828715 826016 823289 820532
          817747 814932 812088 809214 806310 803377 800414 797421 794397 791343 788258 785143
          781997 778820 775612 772372 769102 765799 762465 759098 755700 752269 748806 745310
          741782 738220 734625 730997 727335 723640 719910 716147 712349 708517 704650 700748
          696810 692838 688830 684786 680706 676589 672436 668246 664020 659756 655454 651115
          646738 642322 637868 633374 628842 624270 619659 615007 610315 605582 600808 595993
          591136 586238 581296 576312 571285 566214 561099 555940 550736 545487 540192 534851
          529464 524029 518547 513018 507439 501812 496134 490407 484629 478800 472918 466984
          460997 454955 448859 442708 436500 430236 423913 417532 411091 404590 398027 391402
          384714 377960 371141 364255 357301 350277 343182 336015 328773 321456 314062 306588
          299033 291394 283670 275858 267955 259959 251866 243674 235378 226975 218461 209831
          201079 192200 183187 174034 164730 155268 145635 135818 125801 115564 105090
        </DataArray>
        <DataArray type="Float32" Name="pressure_n" NumberOfComponents="1" format="ascii">
          977506 977386 977249 977096 976928 976746 976549 976337 976110 975869 975612 975340
          975052 974748 974428 974091 973738 973368 972981 972577 972155 971715 971258 970783
          970289 969777 969246 968697 968129 967541 966935 966309 965663 964998 964313 963608
          962883 962138 961373 960587 959781 958954 958106 957237 956348 955437 954505 953551
          952576 951580 950562 949522 948460 947377 946271 945143 943993 942820 941626 940408
          939168 937905 936619 935310 933978 932623 931244 929843 928418 926969 925496 924000
          922480 920936 919368 917776 916160 914519 912854 911164 909450 907711 905947 904158
          902345 900506 898641 896752 894837 892896 890930 888938 886920 884877 882807 880711
          878589 876440 874265 872063 869835 867579 865297 862988 860652 858288 855897 853478
          851032 848558 846056 843526 840968 838382 835767 833124 830453 827752 825023 822265
          819478 816661 813815 810940 808034 805099 802134 799139 796114 793059 789972 786856
          783708 780530 777320 774079 770806 767502 764166 760799 757399 753967 750502 747005
          743475 739912 736316 732686 729023 725327 721596 717831 714032 710199 706330 702427
          698489 694515 690505 686460 682379 678262 674107 669917 665689 661424 657121 652781
          648403 643986 639531 635037 630503 625931 621318 616666 611973 607239 602464 597648
          592791 587891 582949 577964 572936 567865 562749 557589 552385 547135 541840 536498
          531110 525676 520193 514663 509084 503456 497778 492051 486272 480443 474561 468627
          462639 456598 450502 444350 438142 431878 425555 419174 412733 406232 399670 393045
          386357 379604 372785 365900 358946 351922 344828 337662 330421 323105 315711 308238
          300684 293047 285324 277514 269612 261618 253527 245337 237043 228643 220131 211503
          202755 193879 184870 175720 166421 156964 147336 137525 127514 117285 106790
        </DataArray>
        <DataArray type="Float32" Name="density_w" NumberOfComponents="1" format="ascii">
          1000 1000 1000 1000 1000 1000 1000 1000 1000 1000 1000 1000
          1000 1000 1000 1000 1000 1000 1000 1000 1000 1000 1000 1000
          1000 1000 1000 1000 1000 1000 1000 1000 1000 1000 1000 1000
          1000 1000 1000 1000 1000 1000 1000 1000 1000 1000 1000 1000
          1000 1000 1000 1000 1000 1000 1000 1000 1000 1000 1000 1000
          1000 1000 1000 1000 1000 1000 1000 1000 1000 1000 1000 1000
          1000 1000 1000 1000 1000 1000 1000 1000 1000 1000 1000 1000
          1000 1000 1000 1000 1000 1000 1000 1000 1000 1000 1000 1000
          1000 1000 1000 1000 1000 1000 1000 1000 1000 1000 1000 1000
          1000 1000 1000 1000 1000 1000 1000 1000 1000 1000 1000 1000
          1000 1000 1000 1000 1000 1000 1000 1000 1000 1000 1000 1000
          1000 1000 1000 1000 1000 1000 1000 1000 1000 1000 1000 1000
          1000 1000 1000 1000 1000 1000 1000 1000 1000 1000 1000 1000
          1000 1000 1000 1000 1000 1000 1000 1000 1000 1000 1000 1000
          1000 1000 1000 1000 1000 1000 1000 1000 1000 1000 1000 1000
          1000 1000 1000 1000 1000 1000 1000 1000 1000 1000 1000 1000
          1000 1000 1000 1000 1000 1000 1000 1000 1000 1000 1000 1000
          1000 1000 1000 1000 1000 1000 1000 1000 1000 1000 1000 1000
          1000 1000 1000 1000 1000 1000 1000 1000 1000 1000 1000 1000
          1000 1000 1000 1000 1000 1000 1000 1000 1000 1000 1000 1000
          1000 1000 1000 1000 1000 1000 1000 1000 1000 1000 1000
        </DataArray>
        <DataArray type="Float32" Name="density_n" NumberOfComponents="1" format="ascii">
          11.3586 11.3572 11.3556 11.3538 11.3519 11.3497 11.3475 11.345 11.3424 11.3396 11.3366 11.3334
          11.3301 11.3265 11.3228 11.3189 11.3148 11.3105 11.306 11.3013 11.2964 11.2913 11.286 11.2805
          11.2747 11.2688 11.2626 11.2562 11.2496 11.2428 11.2357 11.2285 11.221 11.2132 11.2053 11.1971
          11.1887 11.18 11.1711 11.162 11.1526 11.143 11.1332 11.1231 11.1127 11.1021 11.0913 11.0802
          11.0689 11.0573 11.0455 11.0334 11.0211 11.0085 10.9956 10.9825 10.9692 10.9555 10.9417 10.9275
          10.9131 10.8984 10.8835 10.8683 10.8528 10.837 10.821 10.8047 10.7882 10.7713 10.7542 10.7368
          10.7192 10.7012 10.683 10.6645 10.6457 10.6267 10.6073 10.5877 10.5678 10.5476 10.5271 10.5063
          10.4852 10.4638 10.4422 10.4202 10.398 10.3754 10.3526 10.3294 10.306 10.2822 10.2582 10.2338
          10.2092 10.1842 10.1589 10.1333 10.1074 10.0812 10.0547 10.0279 10.0007 9.97327 9.94549 9.91738
          9.88896 9.86021 9.83114 9.80174 9.77202 9.74197 9.71159 9.68087 9.64983 9.61845 9.58674 9.55469
          9.5223 9.48957 9.4565 9.42309 9.38933 9.35522 9.32077 9.28597 9.25082 9.21531 9.17945 9.14323
          9.10666 9.06972 9.03243 8.99477 8.95674 8.91835 8.87959 8.84045 8.80095 8.76106 8.72081 8.68017
          8.63915 8.59775 8.55596 8.51379 8.47122 8.42827 8.38492 8.34117 8.29703 8.25248 8.20753 8.16217
          8.11641 8.07024 8.02365 7.97664 7.92922 7.88137 7.8331 7.78441 7.73528 7.68572 7.63572 7.58529
          7.53441 7.48309 7.43132 7.3791 7.32642 7.27329 7.21969 7.16563 7.1111 7.0561 7.00061 6.94465
          6.88821 6.83127 6.77385 6.71592 6.6575 6.59857 6.53912 6.47917 6.41869 6.35769 6.29616 6.23409
          6.17148 6.10833 6.04462 5.98036 5.91553 5.85014 5.78417 5.71761 5.65047 5.58273 5.51438 5.44542
          5.37585 5.30565 5.23481 5.16333 5.0912 5.0184 4.94493 4.87079 4.79595 4.72041 4.64415 4.56717
          4.48945 4.41098 4.33175 4.25174 4.17094 4.08933 4.00689 3.92361 3.83948 3.75446 3.66855 3.58172
          3.49394 3.4052 3.31546 3.2247 3.13288 3.03999 2.94597 2.8508 2.75443 2.65682 2.55791 2.45766
          2.356 2.25287 2.14818 2.04186 1.93381 1.82391 1.71204 1.59803 1.48171 1.36285 1.2409
        </DataArray>
        <DataArray type="Float32" Name="saturation_w" NumberOfComponents="1" format="ascii">
          0.283256 0.32981 0.365053 0.394189 0.419334 0.441602 0.461663 0.479953 0.496779 0.512362 0.52687 0.540434
          0.553159 0.565132 0.576425 0.587099 0.597206 0.606793 0.615901 0.624566 0.632821 0.640694 0.648211 0.655398
          0.662275 0.668863 0.67518 0.681242 0.687065 0.692663 0.69805 0.703238 0.708237 0.713058 0.717711 0.722205
          0.726547 0.730747 0.734811 0.738746 0.742559 0.746254 0.749838 0.753316 0.756693 0.759974 0.763162 0.766262
          0.769277 0.772212 0.775069 0.777852 0.780564 0.783207 0.785785 0.788299 0.790753 0.793148 0.795487 0.797771
          0.800004 0.802186 0.804319 0.806405 0.808447 0.810444 0.812399 0.814313 0.816187 0.818023 0.819822 0.821585
          0.823312 0.825007 0.826668 0.828297 0.829896 0.831464 0.833003 0.834514 0.835997 0.837454 0.838884 0.840289
          0.841669 0.843025 0.844358 0.845668 0.846955 0.848221 0.849466 0.85069 0.851894 0.853078 0.854242 0.855388
          0.856516 0.857625 0.858717 0.859792 0.86085 0.861892 0.862917 0.863927 0.864921 0.865901 0.866865 0.867815
          0.86875 0.869672 0.87058 0.871474 0.872356 0.873224 0.87408 0.874923 0.875754 0.876573 0.87738 0.878175
          0.878959 0.879732 0.880494 0.881244 0.881984 0.882714 0.883433 0.884142 0.88484 0.885529 0.886208 0.886877
          0.887537 0.888187 0.888828 0.889459 0.890082 0.890696 0.891301 0.891897 0.892484 0.893063 0.893634 0.894196
          0.894749 0.895295 0.895832 0.896362 0.896883 0.897397 0.897902 0.8984 0.89889 0.899372 0.899847 0.900314
          0.900774 0.901226 0.901671 0.902108 0.902538 0.90296 0.903375 0.903783 0.904184 0.904577 0.904963 0.905341
          0.905712 0.906077 0.906433 0.906783 0.907125 0.90746 0.907788 0.908108 0.908421 0.908726 0.909024 0.909314
          0.909597 0.909872 0.91014 0.910399 0.910651 0.910895 0.911132 0.911359 0.911579 0.911791 0.911994 0.912188
          0.912374 0.912551 0.912719 0.912878 0.913027 0.913167 0.913298 0.913418 0.913528 0.913627 0.913716 0.913794
          0.91386 0.913915 0.913958 0.913988 0.914006 0.91401 0.914 0.913976 0.913937 0.913883 0.913813 0.913725
          0.913621 0.913498 0.913355 0.913193 0.913009 0.912802 0.912572 0.912317 0.912035 0.911725 0.911384 0.911011
          0.910604 0.91016 0.909676 0.909149 0.908575 0.90795 0.90727 0.90653 0.905723 0.904842 0.90388 0.902827
          0.901672 0.900401 0.898998 0.897445 0.895718 0.893787 0.891615 0.889155 0.886345 0.883232 0.892294
        </DataArray>
        <DataArray type="Float32" Name="saturation_n" NumberOfComponents="1" format="ascii">
          0.716744 0.67019 0.634947 0.605811 0.580666 0.558398 0.538337 0.520047 0.503221 0.487638 0.47313 0.459566
          0.446841 0.434868 0.423575 0.412901 0.402794 0.393207 0.384099 0.375434 0.367179 0.359306 0.351789 0.344602
          0.337725 0.331137 0.32482 0.318758 0.312935 0.307337 0.30195 0.296762 0.291763 0.286942 0.282289 0.277795
          0.273453 0.269253 0.265189 0.261254 0.257441 0.253746 0.250162 0.246684 0.243307 0.240026 0.236838 0.233738
          0.230723 0.227788 0.224931 0.222148 0.219436 0.216793 0.214215 0.211701 0.209247 0.206852 0.204513 0.202229
          0.199996 0.197814 0.195681 0.193595 0.191553 0.189556 0.187601 0.185687 0.183813 0.181977 0.180178 0.178415
          0.176688 0.174993 0.173332 0.171703 0.170104 0.168536 0.166997 0.165486 0.164003 0.162546 0.161116 0.159711
          0.158331 0.156975 0.155642 0.154332 0.153045 0.151779 0.150534 0.14931 0.148106 0.146922 0.145758 0.144612
          0.143484 0.142375 0.141283 0.140208 0.13915 0.138108 0.137083 0.136073 0.135079 0.134099 0.133135 0.132185
          0.13125 0.130328 0.12942 0.128526 0.127644 0.126776 0.12592 0.125077 0.124246 0.123427 0.12262 0.121825
          0.121041 0.120268 0.119506 0.118756 0.118016 0.117286 0.116567 0.115859 0.11516 0.114471 0.113792 0.113123
          0.112463 0.111813 0.111172 0.110541 0.109918 0.109304 0.108699 0.108103 0.107516 0.106937 0.106366 0.105804
          0.105251 0.104705 0.104168 0.103638 0.103117 0.102603 0.102098 0.1016 0.10111 0.100628 0.100153 0.0996857
          0.0992261 0.098774 0.0983293 0.0978921 0.0974623 0.0970399 0.0966248 0.096217 0.0958165 0.0954233 0.0950375 0.0946588
          0.0942875 0.0939234 0.0935666 0.0932171 0.0928749 0.09254 0.0922125 0.0918923 0.0915795 0.0912741 0.0909762 0.0906858
          0.090403 0.0901278 0.0898603 0.0896005 0.0893486 0.0891045 0.0888685 0.0886405 0.0884207 0.0882092 0.0880062 0.0878117
          0.0876259 0.0874489 0.0872809 0.087122 0.0869725 0.0868326 0.0867024 0.0865822 0.0864721 0.0863726 0.0862838 0.086206
          0.0861396 0.0860848 0.0860421 0.0860119 0.0859944 0.0859903 0.086 0.0860239 0.0860627 0.086117 0.0861874 0.0862745
          0.0863792 0.0865024 0.0866447 0.0868074 0.0869914 0.0871978 0.087428 0.0876833 0.0879652 0.0882755 0.0886159 0.0889886
          0.0893958 0.08984 0.0903242 0.0908513 0.0914252 0.0920497 0.0927296 0.09347 0.094277 0.0951575 0.0961197 0.0971729
          0.0983284 0.0995994 0.101002 0.102555 0.104282 0.106213 0.108385 0.110845 0.113655 0.116768 0.107706
        </DataArray>
        <DataArray type="Float32" Name="relativePerm_w" NumberOfComponents="1" format="ascii">
          0.0220609 0.0341237 0.0456964 0.0570272 0.0681957 0.0792333 0.0901517 0.100953 0.111633 0.122185 0.132602 0.142876
          0.152999 0.162964 0.172765 0.182396 0.191855 0.201137 0.210242 0.219169 0.227917 0.236487 0.244881 0.253101
          0.261149 0.269028 0.276741 0.284291 0.291682 0.298917 0.306001 0.312937 0.319728 0.326379 0.332894 0.339275
          0.345528 0.351655 0.35766 0.363546 0.369317 0.374977 0.380527 0.385972 0.391315 0.396557 0.401703 0.406755
          0.411715 0.416587 0.421372 0.426073 0.430692 0.435231 0.439693 0.44408 0.448393 0.452634 0.456807 0.460911
          0.464949 0.468923 0.472834 0.476683 0.480473 0.484205 0.487879 0.491498 0.495063 0.498575 0.502035 0.505444
          0.508804 0.512116 0.51538 0.518598 0.521771 0.524899 0.527985 0.531027 0.534028 0.536988 0.539909 0.54279
          0.545633 0.548438 0.551207 0.553939 0.556636 0.559297 0.561925 0.564519 0.56708 0.569609 0.572106 0.574571
          0.577006 0.57941 0.581785 0.58413 0.586447 0.588735 0.590996 0.593229 0.595435 0.597614 0.599767 0.601895
          0.603996 0.606073 0.608125 0.610152 0.612156 0.614135 0.616091 0.618024 0.619934 0.621822 0.623687 0.62553
          0.627352 0.629151 0.63093 0.632688 0.634424 0.63614 0.637836 0.639511 0.641167 0.642802 0.644418 0.646015
          0.647592 0.649151 0.65069 0.652211 0.653712 0.655196 0.656661 0.658108 0.659536 0.660947 0.66234 0.663715
          0.665072 0.666412 0.667734 0.669039 0.670326 0.671596 0.672849 0.674085 0.675303 0.676505 0.677689 0.678857
          0.680007 0.68114 0.682257 0.683357 0.684439 0.685505 0.686554 0.687585 0.6886 0.689597 0.690578 0.691541
          0.692487 0.693416 0.694327 0.695221 0.696097 0.696956 0.697796 0.698619 0.699424 0.70021 0.700978 0.701728
          0.702458 0.70317 0.703863 0.704536 0.705189 0.705823 0.706436 0.707029 0.707601 0.708152 0.708681 0.709188
          0.709673 0.710136 0.710575 0.71099 0.711381 0.711748 0.712089 0.712404 0.712692 0.712953 0.713186 0.71339
          0.713565 0.713709 0.713821 0.7139 0.713946 0.713957 0.713931 0.713868 0.713767 0.713624 0.713439 0.713211
          0.712936 0.712613 0.71224 0.711814 0.711332 0.710792 0.71019 0.709523 0.708788 0.707979 0.707093 0.706124
          0.705067 0.703915 0.702662 0.7013 0.699821 0.698214 0.696469 0.694574 0.692514 0.690273 0.687832 0.685169
          0.682259 0.679072 0.675572 0.671716 0.667452 0.662715 0.657424 0.651477 0.644746 0.637363 0.659074
        </DataArray>
        <DataArray type="Float32" Name="relativePerm_n" NumberOfComponents="1" format="ascii">
          0.567618 0.500478 0.45176 0.412978 0.38066 0.352966 0.328789 0.307397 0.288281 0.271067 0.25547 0.241268
          0.228283 0.216368 0.205402 0.195281 0.185918 0.177236 0.169169 0.16166 0.154658 0.148117 0.141997 0.136262
          0.13088 0.125822 0.121063 0.116579 0.112349 0.108353 0.104575 0.100998 0.0976086 0.094393 0.0913395 0.0884371
          0.0856756 0.083046 0.0805396 0.0781487 0.0758662 0.0736853 0.0716 0.0696046 0.0676938 0.0658628 0.064107 0.0624223
          0.0608048 0.0592509 0.0577571 0.0563202 0.0549375 0.053606 0.0523233 0.0510868 0.0498944 0.0487439 0.0476333 0.0465607
          0.0455245 0.0445228 0.0435542 0.0426172 0.0417104 0.0408325 0.0399822 0.0391584 0.0383599 0.0375858 0.036835 0.0361065
          0.0353996 0.0347133 0.0340468 0.0333994 0.0327703 0.0321589 0.0315644 0.0309863 0.030424 0.0298769 0.0293444 0.0288261
          0.0283214 0.0278298 0.027351 0.0268845 0.0264298 0.0259866 0.0255545 0.0251331 0.0247222 0.0243213 0.0239301 0.0235483
          0.0231757 0.022812 0.0224568 0.02211 0.0217712 0.0214403 0.021117 0.0208011 0.0204923 0.0201906 0.0198956 0.0196071
          0.0193251 0.0190493 0.0187796 0.0185158 0.0182576 0.0180051 0.017758 0.0175162 0.0172795 0.0170479 0.0168211 0.0165992
          0.0163819 0.0161691 0.0159607 0.0157567 0.0155569 0.0153612 0.0151695 0.0149817 0.0147978 0.0146176 0.0144411 0.0142682
          0.0140987 0.0139327 0.01377 0.0136107 0.0134545 0.0133014 0.0131515 0.0130045 0.0128605 0.0127194 0.0125811 0.0124456
          0.0123129 0.0121828 0.0120553 0.0119304 0.011808 0.0116881 0.0115707 0.0114557 0.011343 0.0112326 0.0111245 0.0110187
          0.0109151 0.0108136 0.0107143 0.0106171 0.010522 0.0104289 0.0103379 0.0102488 0.0101618 0.0100767 0.0099935 0.00991223
          0.00983285 0.00975534 0.00967968 0.00960586 0.00953385 0.00946365 0.00939525 0.00932862 0.00926377 0.00920068 0.00913934 0.00907975
          0.0090219 0.00896579 0.00891142 0.00885878 0.00880788 0.00875872 0.0087113 0.00866564 0.00862172 0.00857957 0.0085392 0.00850062
          0.00846385 0.0084289 0.00839579 0.00836455 0.0083352 0.00830777 0.00828229 0.0082588 0.00823734 0.00821794 0.00820065 0.00818553
          0.00817262 0.00816199 0.00815371 0.00814784 0.00814446 0.00814366 0.00814554 0.00815018 0.00815771 0.00816824 0.0081819 0.00819885
          0.00821923 0.00824323 0.00827103 0.00830284 0.00833889 0.00837944 0.00842477 0.0084752 0.00853107 0.00859276 0.00866072 0.00873542
          0.00881742 0.00890731 0.00900581 0.00911369 0.00923186 0.00936135 0.00950335 0.00965924 0.00983061 0.0100193 0.0102277 0.0104582
          0.0107141 0.0109992 0.0113182 0.0116768 0.0120824 0.0125441 0.0130738 0.0136873 0.0144055 0.0152228 0.012907
        </DataArray>
        <DataArray type="Float32" Name="porosity" NumberOfComponents="1" format="ascii">
          0.558 0.558 0.558 0.558 0.558 0.558 0.558 0.558 0.558 0.558 0.558 0.558
          0.558 0.558 0.558 0.558 0.558 0.558 0.558 0.558 0.558 0.558 0.558 0.558
          0.558 0.558 0.558 0.558 0.558 0.558 0.558 0.558 0.558 0.558 0.558 0.558
          0.558 0.558 0.558 0.558 0.558 0.558 0.558 0.558 0.558 0.558 0.558 0.558
          0.558 0.558 0.558 0.558 0.558 0.558 0.558 0.558 0.558 0.558 0.558 0.558
          0.558 0.558 0.558 0.558 0.558 0.558 0.558 0.558 0.558 0.558 0.558 0.558
          0.558 0.558 0.558 0.558 0.558 0.558 0.558 0.558 0.558 0.558 0.558 0.558
          0.558 0.558 0.558 0.558 0.558 0.558 0.558 0.558 0.558 0.558 0.558 0.558
          0.558 0.558 0.558 0.558 0.558 0.558 0.558 0.558 0.558 0.558 0.558 0.558
          0.558 0.558 0.558 0.558 0.558 0.558 0.558 0.558 0.558 0.558 0.558 0.558
          0.558 0.558 0.558 0.558 0.558 0.558 0.558 0.558 0.558 0.558 0.558 0.558
          0.558 0.558 0.558 0.558 0.558 0.558 0.558 0.558 0.558 0.558 0.558 0.558
          0.558 0.558 0.558 0.558 0.558 0.558 0.558 0.558 0.558 0.558 0.558 0.558
          0.558 0.558 0.558 0.558 0.558 0.558 0.558 0.558 0.558 0.558 0.558 0.558
          0.558 0.558 0.558 0.558 0.558 0.558 0.558 0.558 0.558 0.558 0.558 0.558
          0.558 0.558 0.558 0.558 0.558 0.558 0.558 0.558 0.558 0.558 0.558 0.558
          0.558 0.558 0.558 0.558 0.558 0.558 0.558 0.558 0.558 0.558 0.558 0.558
          0.558 0.558 0.558 0.558 0.558 0.558 0.558 0.558 0.558 0.558 0.558 0.558
          0.558 0.558 0.558 0.558 0.558 0.558 0.558 0.558 0.558 0.558 0.558 0.558
          0.558 0.558 0.558 0.558 0.558 0.558 0.558 0.558 0.558 0.558 0.558 0.558
          0.558 0.558 0.558 0.558 0.558 0.558 0.558 0.558 0.558 0.558 0.558
        </DataArray>
        <DataArray type="Float32" Name="filterVelocity_w" NumberOfComponents="1" format="ascii">
          0.000115783 0.000316915 0.000563453 0.000854532 0.00117237 0.00151133 0.00186812 0.00224032 0.00262592 0.00302319 0.00343059 0.00384676
          0.00427044 0.00470052 0.00513599 0.00557595 0.00601959 0.00646618 0.0069151 0.00736577 0.0078177 0.00827044 0.00872361 0.00917687
          0.00962994 0.0100825 0.0105345 0.0109855 0.0114356 0.0118844 0.012332 0.0127782 0.0132229 0.0136661 0.0141076 0.0145475
          0.0149857 0.0154222 0.015857 0.01629 0.0167213 0.0171507 0.0175784 0.0180044 0.0184285 0.0188509 0.0192716 0.0196906
          0.0201078 0.0205233 0.0209372 0.0213494 0.02176 0.0221689 0.0225763 0.022982 0.0233863 0.023789 0.0241901 0.0245898
          0.0249881 0.0253849 0.0257803 0.0261743 0.0265669 0.0269582 0.0273481 0.0277368 0.0281241 0.0285103 0.0288951 0.0292788
          0.0296613 0.0300426 0.0304228 0.0308018 0.0311797 0.0315565 0.0319323 0.032307 0.0326807 0.0330534 0.0334251 0.0337958
          0.0341656 0.0345344 0.0349024 0.0352694 0.0356355 0.0360008 0.0363653 0.0367289 0.0370917 0.0374537 0.037815 0.0381754
          0.0385352 0.0388942 0.0392525 0.0396101 0.039967 0.0403233 0.0406789 0.0410339 0.0413883 0.041742 0.0420952 0.0424478
          0.0427998 0.0431513 0.0435023 0.0438527 0.0442027 0.0445522 0.0449012 0.0452497 0.0455978 0.0459455 0.0462927 0.0466395
          0.046986 0.0473321 0.0476778 0.0480232 0.0483682 0.0487129 0.0490574 0.0494015 0.0497453 0.0500889 0.0504323 0.0507754
          0.0511182 0.0514609 0.0518034 0.0521457 0.0524878 0.0528298 0.0531716 0.0535133 0.0538549 0.0541964 0.0545378 0.0548792
          0.0552204 0.0555617 0.0559029 0.0562442 0.0565854 0.0569267 0.0572679 0.0576093 0.0579507 0.0582922 0.0586338 0.0589755
          0.0593173 0.0596593 0.0600015 0.0603438 0.0606864 0.0610291 0.0613721 0.0617153 0.0620588 0.0624026 0.0627467 0.0630912
          0.0634359 0.0637811 0.0641266 0.0644725 0.0648189 0.0651657 0.065513 0.0658607 0.066209 0.0665578 0.0669071 0.0672571
          0.0676076 0.0679588 0.0683106 0.0686632 0.0690164 0.0693703 0.0697251 0.0700806 0.0704369 0.0707941 0.0711522 0.0715111
          0.0718711 0.072232 0.0725939 0.0729568 0.0733209 0.073686 0.0740524 0.0744199 0.0747887 0.0751587 0.0755301 0.0759029
          0.076277 0.0766527 0.0770298 0.0774086 0.0777889 0.078171 0.0785548 0.0789404 0.0793279 0.0797173 0.0801087 0.0805022
          0.0808978 0.0812957 0.0816959 0.0820985 0.0825036 0.0829113 0.0833217 0.0837349 0.0841511 0.0845702 0.0849926 0.0854183
          0.0858474 0.0862802 0.0867167 0.0871572 0.0876018 0.0880509 0.0885045 0.0889629 0.0894265 0.0898954 0.0903701 0.0908508
          0.091338 0.091832 0.0923335 0.0928428 0.0933606 0.0938877 0.0944248 0.0949729 0.095533 0.096106 0.0963949
        </DataArray>
        <DataArray type="Float32" Name="filterVelocity_n" NumberOfComponents="1" format="ascii">
          0.0881981 0.0883293 0.088565 0.0887522 0.0888981 0.0890079 0.0890858 0.0891354 0.0891597 0.0891612 0.0891424 0.0891053
          0.0890519 0.0889839 0.0889028 0.0888101 0.088707 0.0885946 0.088474 0.0883461 0.0882118 0.0880719 0.087927 0.0877777
          0.0876246 0.0874682 0.0873089 0.0871472 0.0869834 0.0868179 0.086651 0.0864829 0.0863138 0.0861441 0.0859739 0.0858035
          0.0856329 0.0854623 0.0852919 0.0851218 0.0849521 0.084783 0.0846145 0.0844467 0.0842798 0.0841137 0.0839486 0.0837845
          0.0836215 0.0834597 0.0832991 0.0831397 0.0829817 0.082825 0.0826697 0.0825158 0.0823634 0.0822125 0.0820631 0.0819153
          0.0817692 0.0816246 0.0814817 0.0813405 0.081201 0.0810632 0.0809272 0.080793 0.0806606 0.08053 0.0804012 0.0802744
          0.0801494 0.0800264 0.0799053 0.0797861 0.0796689 0.0795538 0.0794406 0.0793295 0.0792205 0.0791135 0.0790087 0.078906
          0.0788054 0.078707 0.0786108 0.0785168 0.0784251 0.0783356 0.0782484 0.0781635 0.0780809 0.0780007 0.0779229 0.0778475
          0.0777746 0.0777041 0.0776361 0.0775706 0.0775077 0.0774473 0.0773896 0.0773345 0.0772821 0.0772324 0.0771854 0.0771412
          0.0770998 0.0770613 0.0770257 0.076993 0.0769632 0.0769365 0.0769128 0.0768922 0.0768748 0.0768605 0.0768495 0.0768418
          0.0768374 0.0768363 0.0768387 0.0768446 0.0768541 0.0768672 0.0768839 0.0769043 0.0769286 0.0769567 0.0769887 0.0770248
          0.0770649 0.0771092 0.0771576 0.0772104 0.0772676 0.0773292 0.0773954 0.0774663 0.0775419 0.0776223 0.0777077 0.0777982
          0.0778938 0.0779946 0.0781009 0.0782126 0.07833 0.0784531 0.0785821 0.0787172 0.0788584 0.079006 0.07916 0.0793206
          0.0794881 0.0796626 0.0798441 0.0800331 0.0802296 0.0804338 0.080646 0.0808663 0.0810951 0.0813324 0.0815787 0.0818341
          0.082099 0.0823735 0.082658 0.0829528 0.0832583 0.0835747 0.0839024 0.0842418 0.0845933 0.0849572 0.085334 0.0857241
          0.0861281 0.0865463 0.0869793 0.0874277 0.087892 0.0883728 0.0888707 0.0893865 0.0899208 0.0904743 0.0910478 0.0916422
          0.0922583 0.0928971 0.0935596 0.0942467 0.0949596 0.0956995 0.0964676 0.0972652 0.0980939 0.098955 0.0998502 0.100781
          0.10175 0.102758 0.103808 0.104903 0.106044 0.107234 0.108476 0.109773 0.111129 0.112546 0.11403 0.115585
          0.117214 0.118924 0.120719 0.122607 0.124593 0.126685 0.128891 0.131221 0.133684 0.136293 0.139058 0.141995
          0.14512 0.148449 0.152005 0.155809 0.159889 0.164274 0.169 0.174108 0.179645 0.185668 0.192244 0.199452
          0.207388 0.216169 0.22594 0.236879 0.249212 0.263229 0.279309 0.297953 0.319846 0.34595 0.359528
        </DataArray>
        <DataArray type="Float32" Name="temperature" NumberOfComponents="1" format="ascii">
          299.75 299.75 299.75 299.75 299.75 299.75 299.75 299.75 299.75 299.75 299.75 299.75
          299.75 299.75 299.75 299.75 299.75 299.75 299.75 299.75 299.75 299.75 299.75 299.75
          299.75 299.75 299.75 299.75 299.75 299.75 299.75 299.75 299.75 299.75 299.75 299.75
          299.75 299.75 299.75 299.75 299.75 299.75 299.75 299.75 299.75 299.75 299.75 299.75
          299.75 299.75 299.75 299.75 299.75 299.75 299.75 299.75 299.75 299.75 299.75 299.75
          299.75 299.75 299.75 299.75 299.75 299.75 299.75 299.75 299.75 299.75 299.75 299.75
          299.75 299.75 299.75 299.75 299.75 299.75 299.75 299.75 299.75 299.75 299.75 299.75
          299.75 299.75 299.75 299.75 299.75 299.75 299.75 299.75 299.75 299.75 299.75 299.75
          299.75 299.75 299.75 299.75 299.75 299.75 299.75 299.75 299.75 299.75 299.75 299.75
          299.75 299.75 299.75 299.75 299.75 299.75 299.75 299.75 299.75 299.75 299.75 299.75
          299.75 299.75 299.75 299.75 299.75 299.75 299.75 299.75 299.75 299.75 299.75 299.75
          299.75 299.75 299.75 299.75 299.75 299.75 299.75 299.75 299.75 299.75 299.75 299.75
          299.75 299.75 299.75 299.75 299.75 299.75 299.75 299.75 299.75 299.75 299.75 299.75
          299.75 299.75 299.75 299.75 299.75 299.75 299.75 299.75 299.75 299.75 299.75 299.75
          299.75 299.75 299.75 299.75 299.75 299.75 299.75 299.75 299.75 299.75 299.75 299.75
          299.75 299.75 299.75 299.75 299.75 299.75 299.75 299.75 299.75 299.75 299.75 299.75
          299.75 299.75 299.75 299.75 299.75 299.75 299.75 299.75 299.75 299.75 299.75 299.75
          299.75 299.75 299.75 299.75 299.75 299.75 299.75 299.75 299.75 299.75 299.75 299.75
          299.75 299.75 299.75 299.75 299.75 299.75 299.75 299.75 299.75 299.75 299.75 299.75
          299.75 299.75 299.75 299.75 299.75 299.75 299.75 299.75 299.75 299.75 299.75 299.75
          299.75 299.75 299.75 299.75 299.75 299.75 299.75 299.75 299.75 299.75 299.75
        </DataArray>
      </PointData>
      <Points>
        <DataArray type="Float32" Name="Coordinates" NumberOfComponents="3" format="ascii">
          0 0 0 0.4 0 0 0.8 0 0 1.2 0 0
          1.6 0 0 2 0 0 2.4 0 0 2.8 0 0
          3.2 0 0 3.6 0 0 4 0 0 4.4 0 0
          4.8 0 0 5.2 0 0 5.6 0 0 6 0 0
          6.4 0 0 6.8 0 0 7.2 0 0 7.6 0 0
          8 0 0 8.4 0 0 8.8 0 0 9.2 0 0
          9.6 0 0 10 0 0 10.4 0 0 10.8 0 0
          11.2 0 0 11.6 0 0 12 0 0 12.4 0 0
          12.8 0 0 13.2 0 0 13.6 0 0 14 0 0
          14.4 0 0 14.8 0 0 15.2 0 0 15.6 0 0
          16 0 0 16.4 0 0 16.8 0 0 17.2 0 0
          17.6 0 0 18 0 0 18.4 0 0 18.8 0 0
          19.2 0 0 19.6 0 0 20 0 0 20.4 0 0
          20.8 0 0 21.2 0 0 21.6 0 0 22 0 0
          22.4 0 0 22.8 0 0 23.2 0 0 23.6 0 0
          24 0 0 24.4 0 0 24.8 0 0 25.2 0 0
          25.6 0 0 26 0 0 26.4 0 0 26.8 0 0
          27.2 0 0 27.6 0 0 28 0 0 28.4 0 0
          28.8 0 0 29.2 0 0 29.6 0 0 30 0 0
          30.4 0 0 30.8 0 0 31.2 0 0 31.6 0 0
          32 0 0 32.4 0 0 32.8 0 0 33.2 0 0
          33.6 0 0 34 0 0 34.4 0 0 34.8 0 0
          35.2 0 0 35.6 0 0 36 0 0 36.4 0 0
          36.8 0 0 37.2 0 0 37.6 0 0 38 0 0
          38.4 0 0 38.8 0 0 39.2 0 0 39.6 0 0
          40 0 0 40.4 0 0 40.8 0 0 41.2 0 0
          41.6 0 0 42 0 0 42.4 0 0 42.8 0 0
          43.2 0 0 43.6 0 0 44 0 0 44.4 0 0
          44.8 0 0 45.2 0 0 45.6 0 0 46 0 0
          46.4 0 0 46.8 0 0 47.2 0 0 47.6 0 0
          48 0 0 48.4 0 0 48.8 0 0 49.2 0 0
          49.6 0 0 50 0 0 50.4 0 0 50.8 0 0
          51.2 0 0 51.6 0 0 52 0 0 52.4 0 0
          52.8 0 0 53.2 0 0 53.6 0 0 54 0 0
          54.4 0 0 54.8 0 0 55.2 0 0 55.6 0 0