<?xml version="1.0"?>
<VTKFile type="PolyData" version="0.1" byte_order="LittleEndian">
  <PolyData>
    <Piece NumberOfLines="250" NumberOfPoints="251">
      <PointData Scalars="pressure_wetting">
        <DataArray type="Float32" Name="pressure_wetting" NumberOfComponents="1" format="ascii">
          186337 186325 186296 186255 186204 186145 186079 186007 185930 185847 185759 185667
          185570 185470 185365 185257 185145 185029 184910 184788 184662 184533 184401 184266
          184128 183987 183843 183696 183547 183395 183240 183082 182922 182759 182593 182425
          182254 182081 181906 181727 181547 181364 181179 180991 180801 180609 180414 180217
          180018 179817 179613 179407 179199 178989 178776 178562 178345 178126 177905 177682
          177457 177229 177000 176768 176534 176299 176061 175821 175579 175336 175090 174842
          174592 174340 174086 173830 173573 173313 173051 172788 172522 172254 171985 171713
          171440 171165 170888 170608 170327 170045 169760 169473 169185 168894 168602 168307
          168011 167713 167414 167112 166808 166503 166196 165887 165576 165263 164948 164632
          164313 163993 163671 163347 163022 162694 162365 162034 161701 161366 161029 160691
          160351 160009 159665 159319 158972 158622 158271 157918 157564 157207 156849 156488
          156126 155763 155397 155030 154660 154289 153916 153542 153165 152787 152407 152025
          151641 151256 150868 150479 150088 149695 149301 148904 148506 148106 147704 147300
          146895 146487 146078 145667 145254 144839 144422 144004 143584 143162 142738 142312
          141884 141455 141023 140590 140155 139718 139279 138838 138396 137951 137505 137056
          136606 136154 135700 135244 134787 134327 133866 133402 132937 132469 132000 131529
          131056 130580 130103 129624 129143 128661 128176 127689 127200 126709 126216 125721
          125225 124726 124225 123722 123217 122710 122201 121690 121177 120662 120145 119625
          119104 118580 118055 117527 116997 116465 115931 115395 114857 114316 113773 113228
          112681 112132 111580 111027 110471 109913 109352 108790 108225 107657 107088 106516
          105942 105365 104786 104205 103621 103036 102447 101857 101266 100684 100158
        </DataArray>
        <DataArray type="Float32" Name="pressure_nonwetting" NumberOfComponents="1" format="ascii">
          188856 188796 188730 188660 188584 188505 188421 188332 188240 188145 188045 187942
          187836 187726 187612 187496 187376 187254 187128 186999 186868 186733 186596 186455
          186312 186166 186018 185867 185713 185557 185398 185236 185072 184906 184737 184566
          184392 184215 184037 183856 183672 183487 183299 183109 182916 182721 182524 182325
          182124 181920 181714 181506 181296 181083 180869 180652 180434 180213 179990 179765
          179538 179309 179077 178844 178609 178372 178132 177891 177648 177402 177155 176906
          176654 176401 176146 175889 175630 175369 175106 174841 174574 174305 174034 173762
          173487 173211 172933 172652 172370 172086 171801 171513 171223 170932 170638 170343
          170046 169747 169447 169144 168839 168533 168225 167915 167603 167290 166974 166657
          166338 166017 165694 165369 165043 164715 164385 164053 163719 163384 163046 162707
          162366 162024 161679 161333 160985 160635 160283 159930 159574 159217 158858 158497
          158135 157770 157404 157036 156667 156295 155922 155546 155169 154791 154410 154028
          153643 153257 152870 152480 152089 151695 151300 150903 150505 150104 149702 149298
          148892 148484 148074 147663 147250 146835 146418 145999 145578 145156 144732 144305
          143877 143448 143016 142582 142147 141710 141271 140830 140387 139942 139496 139047
          138597 138144 137690 137234 136776 136316 135855 135391 134925 134458 133988 133517
          133044 132569 132091 131612 131131 130648 130163 129676 129187 128696 128203 127708
          127212 126713 126212 125709 125204 124697 124188 123677 123164 122649 122131 121612
          121091 120567 120042 119514 118984 118452 117918 117382 116844 116303 115761 115216
          114669 114120 113568 113015 112459 111901 111340 110778 110213 109646 109077 108505
          107931 107355 106776 106195 105612 105026 104438 103846 103250 102630 101867
        </DataArray>
        <DataArray type="Float32" Name="density_wetting" NumberOfComponents="1" format="ascii">
          1000 1000 1000 1000 1000 1000 1000 1000 1000 1000 1000 1000
          1000 1000 1000 1000 1000 1000 1000 1000 1000 1000 1000 1000
          1000 1000 1000 1000 1000 1000 1000 1000 1000 1000 1000 1000
          1000 1000 1000 1000 1000 1000 1000 1000 1000 1000 1000 1000
          1000 1000 1000 1000 1000 1000 1000 1000 1000 1000 1000 1000
          1000 1000 1000 1000 1000 1000 1000 1000 1000 1000 1000 1000
          1000 1000 1000 1000 1000 1000 1000 1000 1000 1000 1000 1000
          1000 1000 1000 1000 1000 1000 1000 1000 1000 1000 1000 1000
          1000 1000 1000 1000 1000 1000 1000 1000 1000 1000 1000 1000
          1000 1000 1000 1000 1000 1000 1000 1000 1000 1000 1000 1000
          1000 1000 1000 1000 1000 1000 1000 1000 1000 1000 1000 1000
          1000 1000 1000 1000 1000 1000 1000 1000 1000 1000 1000 1000
          1000 1000 1000 1000 1000 1000 1000 1000 1000 1000 1000 1000
          1000 1000 1000 1000 1000 1000 1000 1000 1000 1000 1000 1000
          1000 1000 1000 1000 1000 1000 1000 1000 1000 1000 1000 1000
          1000 1000 1000 1000 1000 1000 1000 1000 1000 1000 1000 1000
          1000 1000 1000 1000 1000 1000 1000 1000 1000 1000 1000 1000
          1000 1000 1000 1000 1000 1000 1000 1000 1000 1000 1000 1000
          1000 1000 1000 1000 1000 1000 1000 1000 1000 1000 1000 1000
          1000 1000 1000 1000 1000 1000 1000 1000 1000 1000 1000 1000
          1000 1000 1000 1000 1000 1000 1000 1000 1000 1000 1000
        </DataArray>
        <DataArray type="Float32" Name="density_nonwetting" NumberOfComponents="1" format="ascii">
          2.19449 2.1938 2.19304 2.19222 2.19134 2.19042 2.18944 2.18842 2.18735 2.18623 2.18508 2.18388
          2.18264 2.18137 2.18005 2.1787 2.17731 2.17588 2.17442 2.17292 2.17139 2.16983 2.16823 2.1666
          2.16494 2.16325 2.16152 2.15977 2.15798 2.15616 2.15432 2.15244 2.15053 2.1486 2.14664 2.14464
          2.14262 2.14058 2.1385 2.1364 2.13427 2.13211 2.12993 2.12771 2.12548 2.12321 2.12092 2.11861
          2.11627 2.1139 2.11151 2.10909 2.10665 2.10418 2.10169 2.09917 2.09663 2.09407 2.09148 2.08886
          2.08622 2.08356 2.08087 2.07816 2.07543 2.07267 2.06989 2.06709 2.06426 2.06141 2.05853 2.05564
          2.05272 2.04978 2.04681 2.04382 2.04081 2.03778 2.03472 2.03164 2.02854 2.02542 2.02227 2.01911
          2.01592 2.0127 2.00947 2.00621 2.00294 1.99964 1.99632 1.99297 1.98961 1.98622 1.98281 1.97938
          1.97593 1.97246 1.96896 1.96545 1.96191 1.95835 1.95477 1.95117 1.94754 1.9439 1.94023 1.93655
          1.93284 1.92911 1.92536 1.92159 1.91779 1.91398 1.91014 1.90629 1.90241 1.89851 1.89459 1.89065
          1.88669 1.88271 1.87871 1.87468 1.87064 1.86657 1.86248 1.85837 1.85425 1.8501 1.84592 1.84173
          1.83752 1.83329 1.82903 1.82476 1.82046 1.81614 1.8118 1.80744 1.80306 1.79866 1.79424 1.7898
          1.78533 1.78085 1.77634 1.77181 1.76726 1.76269 1.7581 1.75349 1.74886 1.74421 1.73953 1.73483
          1.73012 1.72538 1.72062 1.71584 1.71104 1.70621 1.70137 1.6965 1.69161 1.68671 1.68178 1.67682
          1.67185 1.66686 1.66184 1.6568 1.65174 1.64666 1.64156 1.63644 1.63129 1.62612 1.62093 1.61572
          1.61049 1.60523 1.59996 1.59466 1.58933 1.58399 1.57863 1.57324 1.56783 1.5624 1.55694 1.55146
          1.54596 1.54044 1.5349 1.52933 1.52374 1.51813 1.51249 1.50683 1.50115 1.49545 1.48972 1.48397
          1.47819 1.4724 1.46658 1.46073 1.45486 1.44897 1.44306 1.43712 1.43116 1.42517 1.41916 1.41313
          1.40707 1.40099 1.39488 1.38875 1.38259 1.37641 1.3702 1.36397 1.35772 1.35144 1.34513 1.3388
          1.33245 1.32607 1.31966 1.31323 1.30677 1.30028 1.29377 1.28724 1.28067 1.27408 1.26747 1.26082
          1.25415 1.24746 1.24073 1.23398 1.2272 1.2204 1.21356 1.20669 1.19976 1.19256 1.18369
        </DataArray>
        <DataArray type="Float32" Name="saturation_wetting" NumberOfComponents="1" format="ascii">
          0.339787 0.369881 0.393923 0.413947 0.431083 0.446031 0.459263 0.471112 0.481822 0.491578 0.500525 0.508777
          0.516424 0.523543 0.530196 0.536434 0.542301 0.547834 0.553067 0.558026 0.562737 0.56722 0.571493 0.575574
          0.579477 0.583216 0.586802 0.590245 0.593555 0.596741 0.599811 0.602772 0.60563 0.608391 0.611062 0.613646
          0.616148 0.618574 0.620926 0.623209 0.625425 0.627578 0.629672 0.631708 0.63369 0.635619 0.637498 0.639329
          0.641115 0.642856 0.644555 0.646214 0.647833 0.649415 0.650961 0.652472 0.653949 0.655393 0.656807 0.65819
          0.659544 0.66087 0.662168 0.66344 0.664687 0.665908 0.667105 0.668279 0.669431 0.67056 0.671668 0.672755
          0.673822 0.67487 0.675898 0.676907 0.677899 0.678873 0.67983 0.68077 0.681693 0.682601 0.683493 0.68437
          0.685232 0.68608 0.686913 0.687733 0.688539 0.689332 0.690112 0.69088 0.691634 0.692377 0.693108 0.693828
          0.694536 0.695232 0.695918 0.696593 0.697258 0.697912 0.698556 0.69919 0.699814 0.700429 0.701034 0.70163
          0.702217 0.702795 0.703364 0.703924 0.704476 0.705019 0.705554 0.706082 0.706601 0.707112 0.707615 0.708111
          0.708599 0.70908 0.709553 0.710019 0.710478 0.71093 0.711375 0.711813 0.712244 0.712669 0.713087 0.713499
          0.713904 0.714303 0.714695 0.715081 0.715461 0.715835 0.716203 0.716565 0.716921 0.717272 0.717616 0.717955
          0.718288 0.718616 0.718938 0.719254 0.719565 0.719871 0.720171 0.720466 0.720755 0.72104 0.721319 0.721593
          0.721862 0.722125 0.722384 0.722638 0.722887 0.72313 0.723369 0.723603 0.723832 0.724056 0.724276 0.724491
          0.7247 0.724905 0.725106 0.725302 0.725493 0.725679 0.72586 0.726038 0.72621 0.726378 0.726541 0.7267
          0.726854 0.727003 0.727148 0.727288 0.727424 0.727555 0.727682 0.727804 0.727922 0.728035 0.728144 0.728248
          0.728348 0.728443 0.728534 0.72862 0.728701 0.728778 0.728851 0.728919 0.728982 0.729041 0.729095 0.729145
          0.72919 0.72923 0.729266 0.729297 0.729324 0.729345 0.729362 0.729375 0.729382 0.729385 0.729383 0.729376
          0.729365 0.729348 0.729327 0.7293 0.729269 0.729233 0.729192 0.729145 0.729094 0.729037 0.728975 0.728908
          0.728836 0.728758 0.728675 0.728587 0.728493 0.728393 0.728289 0.728178 0.728062 0.72794 0.727812 0.727678
          0.727539 0.727393 0.727242 0.727084 0.726924 0.726775 0.726725 0.727289 0.731518 0.757152 0.888401
        </DataArray>
        <DataArray type="Float32" Name="saturation_nonwetting" NumberOfComponents="1" format="ascii">
          0.660213 0.630119 0.606077 0.586052 0.568917 0.553969 0.540736 0.528888 0.518178 0.508422 0.499475 0.491223
          0.483576 0.476457 0.469804 0.463566 0.457699 0.452166 0.446933 0.441974 0.437263 0.43278 0.428507 0.424426
          0.420523 0.416784 0.413198 0.409755 0.406445 0.403259 0.400189 0.397228 0.39437 0.391609 0.388938 0.386354
          0.383852 0.381426 0.379074 0.376791 0.374575 0.372422 0.370328 0.368292 0.36631 0.364381 0.362502 0.360671
          0.358885 0.357144 0.355445 0.353786 0.352167 0.350585 0.349039 0.347528 0.346051 0.344607 0.343193 0.34181
          0.340456 0.33913 0.337832 0.33656 0.335313 0.334092 0.332895 0.331721 0.330569 0.32944 0.328332 0.327245
          0.326178 0.32513 0.324102 0.323093 0.322101 0.321127 0.32017 0.31923 0.318307 0.317399 0.316507 0.31563
          0.314768 0.31392 0.313087 0.312267 0.311461 0.310668 0.309888 0.309121 0.308365 0.307623 0.306892 0.306172
          0.305464 0.304768 0.304082 0.303407 0.302742 0.302088 0.301444 0.30081 0.300186 0.299571 0.298966 0.29837
          0.297783 0.297205 0.296636 0.296076 0.295524 0.294981 0.294445 0.293918 0.293399 0.292888 0.292385 0.291889
          0.291401 0.29092 0.290447 0.289981 0.289522 0.28907 0.288625 0.288187 0.287756 0.287331 0.286913 0.286501
          0.286096 0.285697 0.285305 0.284919 0.284539 0.284165 0.283797 0.283435 0.283079 0.282728 0.282384 0.282045
          0.281712 0.281384 0.281062 0.280746 0.280435 0.280129 0.279829 0.279534 0.279245 0.27896 0.278681 0.278407
          0.278138 0.277875 0.277616 0.277362 0.277113 0.27687 0.276631 0.276397 0.276168 0.275944 0.275724 0.275509
          0.2753 0.275095 0.274894 0.274698 0.274507 0.274321 0.27414 0.273962 0.27379 0.273622 0.273459 0.2733
          0.273146 0.272997 0.272852 0.272712 0.272576 0.272445 0.272318 0.272196 0.272078 0.271965 0.271856 0.271752
          0.271652 0.271557 0.271466 0.27138 0.271299 0.271222 0.271149 0.271081 0.271018 0.270959 0.270905 0.270855
          0.27081 0.27077 0.270734 0.270703 0.270676 0.270655 0.270638 0.270625 0.270618 0.270615 0.270617 0.270624
          0.270635 0.270652 0.270673 0.2707 0.270731 0.270767 0.270808 0.270855 0.270906 0.270963 0.271025 0.271092
          0.271164 0.271242 0.271325 0.271413 0.271507 0.271607 0.271711 0.271822 0.271938 0.27206 0.272188 0.272322
          0.272461 0.272607 0.272759 0.272916 0.273076 0.273225 0.273275 0.272711 0.268482 0.242848 0.111599
        </DataArray>
        <DataArray type="Float32" Name="relativePerm_wetting" NumberOfComponents="1" format="ascii">
          0.0371745 0.0474594 0.0569158 0.0656901 0.0738808 0.0815628 0.0887957 0.0956288 0.102103 0.108254 0.114111 0.1197
          0.125044 0.130162 0.135073 0.139791 0.144331 0.148705 0.152924 0.156998 0.160935 0.164746 0.168436 0.172012
          0.175482 0.178851 0.182123 0.185305 0.1884 0.191413 0.194347 0.197206 0.199995 0.202715 0.205369 0.207961
          0.210493 0.212968 0.215387 0.217753 0.220067 0.222333 0.224551 0.226724 0.228852 0.230937 0.232982 0.234986
          0.236952 0.238881 0.240773 0.242631 0.244454 0.246245 0.248003 0.249731 0.251428 0.253096 0.254735 0.256347
          0.257932 0.25949 0.261023 0.26253 0.264014 0.265473 0.26691 0.268323 0.269715 0.271085 0.272434 0.273762
          0.27507 0.276359 0.277628 0.278878 0.28011 0.281323 0.282519 0.283698 0.284859 0.286004 0.287132 0.288244
          0.289341 0.290422 0.291488 0.292539 0.293575 0.294597 0.295604 0.296598 0.297578 0.298545 0.299498 0.300438
          0.301366 0.302281 0.303183 0.304073 0.304951 0.305818 0.306672 0.307515 0.308347 0.309167 0.309977 0.310775
          0.311563 0.31234 0.313107 0.313863 0.314609 0.315345 0.316071 0.316787 0.317494 0.318191 0.318878 0.319556
          0.320224 0.320884 0.321534 0.322175 0.322808 0.323431 0.324046 0.324653 0.32525 0.325839 0.32642 0.326993
          0.327557 0.328113 0.328661 0.329201 0.329733 0.330257 0.330773 0.331281 0.331782 0.332275 0.33276 0.333238
          0.333709 0.334172 0.334627 0.335075 0.335516 0.33595 0.336376 0.336796 0.337208 0.337613 0.338011 0.338401
          0.338785 0.339162 0.339532 0.339896 0.340252 0.340601 0.340944 0.34128 0.341609 0.341931 0.342247 0.342556
          0.342858 0.343154 0.343443 0.343726 0.344001 0.344271 0.344533 0.344789 0.345039 0.345282 0.345518 0.345748
          0.345972 0.346189 0.346399 0.346603 0.3468 0.346991 0.347176 0.347353 0.347525 0.34769 0.347848 0.348
          0.348145 0.348284 0.348416 0.348541 0.34866 0.348773 0.348878 0.348978 0.34907 0.349156 0.349235 0.349308
          0.349373 0.349432 0.349485 0.34953 0.349569 0.349601 0.349626 0.349644 0.349655 0.349659 0.349656 0.349646
          0.349629 0.349605 0.349574 0.349535 0.349489 0.349436 0.349376 0.349308 0.349233 0.34915 0.34906 0.348962
          0.348856 0.348743 0.348622 0.348493 0.348356 0.348211 0.348058 0.347897 0.347728 0.34755 0.347364 0.34717
          0.346967 0.346755 0.346535 0.346307 0.346074 0.345858 0.345785 0.346604 0.352788 0.392045 0.649665
        </DataArray>
        <DataArray type="Float32" Name="relativePerm_nonwetting" NumberOfComponents="1" format="ascii">
          0.486493 0.445238 0.413327 0.387491 0.365938 0.347564 0.331641 0.317659 0.305247 0.294132 0.284099 0.274985
          0.266657 0.259009 0.251954 0.245418 0.239343 0.233677 0.228376 0.223404 0.218729 0.214321 0.210159 0.206219
          0.202483 0.198935 0.195559 0.192343 0.189275 0.186343 0.183539 0.180853 0.178279 0.175807 0.173433 0.17115
          0.168953 0.166836 0.164795 0.162826 0.160925 0.159088 0.157312 0.155593 0.153929 0.152318 0.150755 0.149241
          0.147771 0.146343 0.144957 0.143611 0.142301 0.141028 0.139789 0.138583 0.137409 0.136265 0.13515 0.134064
          0.133004 0.131971 0.130963 0.129978 0.129017 0.128079 0.127162 0.126266 0.125391 0.124535 0.123698 0.122879
          0.122078 0.121295 0.120528 0.119777 0.119041 0.118321 0.117616 0.116925 0.116248 0.115585 0.114935 0.114297
          0.113672 0.113059 0.112458 0.111868 0.11129 0.110722 0.110165 0.109619 0.109082 0.108556 0.108039 0.107531
          0.107033 0.106543 0.106062 0.10559 0.105127 0.104671 0.104223 0.103784 0.103352 0.102927 0.10251 0.1021
          0.101697 0.101301 0.100912 0.100529 0.100153 0.0997835 0.0994201 0.0990629 0.0987117 0.0983664 0.098027 0.0976932
          0.0973652 0.0970426 0.0967255 0.0964137 0.0961071 0.0958058 0.0955095 0.0952182 0.0949318 0.0946503 0.0943736 0.0941016
          0.0938342 0.0935713 0.093313 0.0930591 0.0928096 0.0925644 0.0923234 0.0920867 0.0918541 0.0916256 0.0914011 0.0911806
          0.090964 0.0907514 0.0905426 0.0903376 0.0901363 0.0899388 0.0897449 0.0895547 0.0893681 0.0891851 0.0890055 0.0888295
          0.0886569 0.0884877 0.088322 0.0881596 0.0880005 0.0878448 0.0876923 0.087543 0.087397 0.0872542 0.0871146 0.0869782
          0.0868448 0.0867146 0.0865875 0.0864634 0.0863424 0.0862245 0.0861095 0.0859976 0.0858887 0.0857827 0.0856797 0.0855797
          0.0854826 0.0853884 0.0852972 0.0852088 0.0851234 0.0850408 0.0849611 0.0848843 0.0848104 0.0847393 0.0846712 0.0846058
          0.0845433 0.0844837 0.084427 0.084373 0.084322 0.0842738 0.0842284 0.0841859 0.0841463 0.0841095 0.0840756 0.0840446
          0.0840165 0.0839912 0.0839689 0.0839494 0.0839329 0.0839193 0.0839087 0.083901 0.0838962 0.0838944 0.0838957 0.0838999
          0.0839072 0.0839175 0.0839309 0.0839473 0.0839669 0.0839895 0.0840154 0.0840444 0.0840765 0.084112 0.0841506 0.0841926
          0.0842378 0.0842864 0.0843384 0.0843937 0.0844525 0.0845148 0.0845806 0.0846499 0.0847228 0.0847994 0.0848797 0.0849636
          0.0850514 0.0851429 0.0852383 0.0853372 0.0854383 0.0855321 0.0855638 0.0852085 0.0825679 0.0674361 0.0138782
        </DataArray>
        <DataArray type="Float32" Name="porosity" NumberOfComponents="1" format="ascii">
          0.558 0.558 0.558 0.558 0.558 0.558 0.558 0.558 0.558 0.558 0.558 0.558
          0.558 0.558 0.558 0.558 0.558 0.558 0.558 0.558 0.558 0.558 0.558 0.558
          0.558 0.558 0.558 0.558 0.558 0.558 0.558 0.558 0.558 0.558 0.558 0.558
          0.558 0.558 0.558 0.558 0.558 0.558 0.558 0.558 0.558 0.558 0.558 0.558
          0.558 0.558 0.558 0.558 0.558 0.558 0.558 0.558 0.558 0.558 0.558 0.558
          0.558 0.558 0.558 0.558 0.558 0.558 0.558 0.558 0.558 0.558 0.558 0.558
          0.558 0.558 0.558 0.558 0.558 0.558 0.558 0.558 0.558 0.558 0.558 0.558
          0.558 0.558 0.558 0.558 0.558 0.558 0.558 0.558 0.558 0.558 0.558 0.558
          0.558 0.558 0.558 0.558 0.558 0.558 0.558 0.558 0.558 0.558 0.558 0.558
          0.558 0.558 0.558 0.558 0.558 0.558 0.558 0.558 0.558 0.558 0.558 0.558
          0.558 0.558 0.558 0.558 0.558 0.558 0.558 0.558 0.558 0.558 0.558 0.558
          0.558 0.558 0.558 0.558 0.558 0.558 0.558 0.558 0.558 0.558 0.558 0.558
          0.558 0.558 0.558 0.558 0.558 0.558 0.558 0.558 0.558 0.558 0.558 0.558
          0.558 0.558 0.558 0.558 0.558 0.558 0.558 0.558 0.558 0.558 0.558 0.558
          0.558 0.558 0.558 0.558 0.558 0.558 0.558 0.558 0.558 0.558 0.558 0.558
          0.558 0.558 0.558 0.558 0.558 0.558 0.558 0.558 0.558 0.558 0.558 0.558
          0.558 0.558 0.558 0.558 0.558 0.558 0.558 0.558 0.558 0.558 0.558 0.558
          0.558 0.558 0.558 0.558 0.558 0.558 0.558 0.558 0.558 0.558 0.558 0.558
          0.558 0.558 0.558 0.558 0.558 0.558 0.558 0.558 0.558 0.558 0.558 0.558
          0.558 0.558 0.558 0.558 0.558 0.558 0.558 0.558 0.558 0.558 0.558 0.558
          0.558 0.558 0.558 0.558 0.558 0.558 0.558 0.558 0.558 0.558 0.558
        </DataArray>
        <DataArray type="Float32" Name="filterVelocity_wetting" NumberOfComponents="1" format="ascii">
          0.000125907 0.000260161 0.000533712 0.000815525 0.00110267 0.00139331 0.00168624 0.00198062 0.00227586 0.00257153 0.00286729 0.00316291
          0.00345821 0.00375303 0.00404727 0.00434083 0.00463366 0.0049257 0.0052169 0.00550724 0.00579669 0.00608524 0.00637288 0.00665959
          0.00694537 0.00723023 0.00751415 0.00779715 0.00807923 0.0083604 0.00864066 0.00892001 0.00919848 0.00947606 0.00975277 0.0100286
          0.0103036 0.0105778 0.0108511 0.0111236 0.0113953 0.0116662 0.0119363 0.0122056 0.0124742 0.012742 0.0130091 0.0132754
          0.013541 0.0138059 0.0140701 0.0143336 0.0145965 0.0148586 0.0151201 0.0153809 0.0156411 0.0159006 0.0161595 0.0164178
          0.0166755 0.0169326 0.0171891 0.017445 0.0177003 0.0179551 0.0182093 0.0184629 0.018716 0.0189686 0.0192206 0.0194721
          0.019723 0.0199735 0.0202234 0.0204729 0.0207219 0.0209703 0.0212183 0.0214659 0.0217129 0.0219595 0.0222056 0.0224513
          0.0226965 0.0229413 0.0231857 0.0234296 0.0236731 0.0239162 0.0241588 0.0244011 0.0246429 0.0248844 0.0251254 0.0253661
          0.0256063 0.0258462 0.0260857 0.0263248 0.0265636 0.0268019 0.02704 0.0272776 0.0275149 0.0277518 0.0279884 0.0282247
          0.0284606 0.0286962 0.0289314 0.0291663 0.0294008 0.0296351 0.029869 0.0301026 0.0303359 0.0305688 0.0308015 0.0310338
          0.0312659 0.0314976 0.031729 0.0319602 0.032191 0.0324215 0.0326518 0.0328818 0.0331114 0.0333408 0.0335699 0.0337988
          0.0340273 0.0342556 0.0344836 0.0347113 0.0349388 0.035166 0.0353929 0.0356195 0.0358459 0.0360721 0.0362979 0.0365236
          0.0367489 0.036974 0.0371989 0.0374235 0.0376478 0.0378719 0.0380957 0.0383193 0.0385427 0.0387658 0.0389886 0.0392113
          0.0394336 0.0396558 0.0398776 0.0400993 0.0403207 0.0405419 0.0407628 0.0409835 0.041204 0.0414242 0.0416442 0.0418639
          0.0420834 0.0423027 0.0425217 0.0427406 0.0429591 0.0431775 0.0433956 0.0436134 0.0438311 0.0440485 0.0442656 0.0444826
          0.0446993 0.0449157 0.0451319 0.0453479 0.0455637 0.0457792 0.0459944 0.0462095 0.0464243 0.0466388 0.0468531 0.0470672
          0.047281 0.0474945 0.0477079 0.0479209 0.0481338 0.0483463 0.0485587 0.0487707 0.0489825 0.0491941 0.0494054 0.0496164
          0.0498271 0.0500376 0.0502478 0.0504578 0.0506675 0.0508769 0.051086 0.0512948 0.0515034 0.0517116 0.0519196 0.0521273
          0.0523346 0.0525417 0.0527485 0.0529549 0.0531611 0.0533669 0.0535724 0.0537775 0.0539824 0.0541869 0.054391 0.0545948
          0.0547983 0.0550014 0.0552041 0.0554065 0.0556084 0.05581 0.0560112 0.0562121 0.0564125 0.0566125 0.056812 0.0570112
          0.0572099 0.0574082 0.057606 0.0578033 0.0580002 0.0581965 0.0583919 0.0585849 0.0587688 0.0589188 0.0589804
        </DataArray>
        <DataArray type="Float32" Name="filterVelocity_nonwetting" NumberOfComponents="1" format="ascii">
          0.455748 0.455864 0.456092 0.456312 0.456528 0.456742 0.456956 0.457172 0.457391 0.457612 0.457838 0.458068
          0.458302 0.458541 0.458785 0.459034 0.459289 0.459549 0.459815 0.460087 0.460364 0.460647 0.460936 0.461231
          0.461532 0.461839 0.462152 0.46247 0.462795 0.463127 0.463464 0.463807 0.464156 0.464512 0.464874 0.465242
          0.465616 0.465996 0.466383 0.466775 0.467174 0.467579 0.467991 0.468408 0.468832 0.469262 0.469699 0.470142
          0.470591 0.471046 0.471508 0.471976 0.472451 0.472932 0.473419 0.473913 0.474414 0.47492 0.475434 0.475954
          0.47648 0.477013 0.477553 0.478099 0.478652 0.479212 0.479778 0.480351 0.480931 0.481518 0.482111 0.482711
          0.483319 0.483933 0.484554 0.485182 0.485818 0.48646 0.487109 0.487766 0.48843 0.489101 0.489779 0.490465
          0.491158 0.491859 0.492567 0.493282 0.494005 0.494736 0.495474 0.496221 0.496974 0.497736 0.498506 0.499283
          0.500069 0.500863 0.501664 0.502474 0.503293 0.504119 0.504954 0.505797 0.506649 0.507509 0.508378 0.509256
          0.510143 0.511038 0.511942 0.512856 0.513778 0.51471 0.51565 0.516601 0.51756 0.518529 0.519508 0.520496
          0.521494 0.522502 0.52352 0.524548 0.525586 0.526634 0.527693 0.528762 0.529842 0.530932 0.532033 0.533145
          0.534268 0.535402 0.536547 0.537703 0.538871 0.540051 0.541242 0.542445 0.54366 0.544887 0.546126 0.547377
          0.548641 0.549918 0.551207 0.55251 0.553825 0.555153 0.556495 0.55785 0.559219 0.560602 0.561999 0.56341
          0.564835 0.566275 0.56773 0.569199 0.570684 0.572183 0.573699 0.575229 0.576776 0.578339 0.579917 0.581513
          0.583125 0.584754 0.5864 0.588063 0.589744 0.591443 0.59316 0.594895 0.596648 0.598421 0.600212 0.602023
          0.603854 0.605704 0.607575 0.609466 0.611378 0.613311 0.615265 0.617241 0.61924 0.62126 0.623303 0.625369
          0.627459 0.629572 0.63171 0.633872 0.636059 0.638271 0.640509 0.642773 0.645064 0.647381 0.649726 0.652099
          0.6545 0.65693 0.659389 0.661878 0.664397 0.666947 0.669528 0.672142 0.674787 0.677466 0.680178 0.682925
          0.685706 0.688523 0.691376 0.694265 0.697192 0.700158 0.703162 0.706205 0.70929 0.712415 0.715582 0.718792
          0.722045 0.725344 0.728687 0.732077 0.735514 0.738999 0.742533 0.746117 0.749753 0.753441 0.757183 0.760979
          0.764831 0.76874 0.772708 0.776735 0.780822 0.784973 0.789187 0.793472 0.797846 0.802414 0.804768
        </DataArray>
        <DataArray type="Float32" Name="temperature" NumberOfComponents="1" format="ascii">
          299.75 299.75 299.75 299.75 299.75 299.75 299.75 299.75 299.75 299.75 299.75 299.75
          299.75 299.75 299.75 299.75 299.75 299.75 299.75 299.75 299.75 299.75 299.75 299.75
          299.75 299.75 299.75 299.75 299.75 299.75 299.75 299.75 299.75 299.75 299.75 299.75
          299.75 299.75 299.75 299.75 299.75 299.75 299.75 299.75 299.75 299.75 299.75 299.75
          299.75 299.75 299.75 299.75 299.75 299.75 299.75 299.75 299.75 299.75 299.75 299.75
          299.75 299.75 299.75 299.75 299.75 299.75 299.75 299.75 299.75 299.75 299.75 299.75
          299.75 299.75 299.75 299.75 299.75 299.75 299.75 299.75 299.75 299.75 299.75 299.75
          299.75 299.75 299.75 299.75 299.75 299.75 299.75 299.75 299.75 299.75 299.75 299.75
          299.75 299.75 299.75 299.75 299.75 299.75 299.75 299.75 299.75 299.75 299.75 299.75
          299.75 299.75 299.75 299.75 299.75 299.75 299.75 299.75 299.75 299.75 299.75 299.75
          299.75 299.75 299.75 299.75 299.75 299.75 299.75 299.75 299.75 299.75 299.75 299.75
          299.75 299.75 299.75 299.75 299.75 299.75 299.75 299.75 299.75 299.75 299.75 299.75
          299.75 299.75 299.75 299.75 299.75 299.75 299.75 299.75 299.75 299.75 299.75 299.75
          299.75 299.75 299.75 299.75 299.75 299.75 299.75 299.75 299.75 299.75 299.75 299.75
          299.75 299.75 299.75 299.75 299.75 299.75 299.75 299.75 299.75 299.75 299.75 299.75
          299.75 299.75 299.75 299.75 299.75 299.75 299.75 299.75 299.75 299.75 299.75 299.75
          299.75 299.75 299.75 299.75 299.75 299.75 299.75 299.75 299.75 299.75 299.75 299.75
          299.75 299.75 299.75 299.75 299.75 299.75 299.75 299.75 299.75 299.75 299.75 299.75
          299.75 299.75 299.75 299.75 299.75 299.75 299.75 299.75 299.75 299.75 299.75 299.75
          299.75 299.75 299.75 299.75 299.75 299.75 299.75 299.75 299.75 299.75 299.75 299.75
          299.75 299.75 299.75 299.75 299.75 299.75 299.75 299.75 299.75 299.75 299.75
        </DataArray>
      </PointData>
      <Points>
        <DataArray type="Float32" Name="Coordinates" NumberOfComponents="3" format="ascii">
          0 0 0 0.4 0 0 0.8 0 0 1.2 0 0
          1.6 0 0 2 0 0 2.4 0 0 2.8 0 0
          3.2 0 0 3.6 0 0 4 0 0 4.4 0 0
          4.8 0 0 5.2 0 0 5.6 0 0 6 0 0
          6.4 0 0 6.8 0 0 7.2 0 0 7.6 0 0
          8 0 0 8.4 0 0 8.8 0 0 9.2 0 0
          9.6 0 0 10 0 0 10.4 0 0 10.8 0 0
          11.2 0 0 11.6 0 0 12 0 0 12.4 0 0
          12.8 0 0 13.2 0 0 13.6 0 0 14 0 0
          14.4 0 0 14.8 0 0 15.2 0 0 15.6 0 0
          16 0 0 16.4 0 0 16.8 0 0 17.2 0 0
          17.6 0 0 18 0 0 18.4 0 0 18.8 0 0
          19.2 0 0 19.6 0 0 20 0 0 20.4 0 0
          20.8 0 0 21.2 0 0 21.6 0 0 22 0 0
          22.4 0 0 22.8 0 0 23.2 0 0 23.6 0 0
          24 0 0 24.4 0 0 24.8 0 0 25.2 0 0
          25.6 0 0 26 0 0 26.4 0 0 26.8 0 0
          27.2 0 0 27.6 0 0 28 0 0 28.4 0 0
          28.8 0 0 29.2 0 0 29.6 0 0 30 0 0
          30.4 0 0 30.8 0 0 31.2 0 0 31.6 0 0
          32 0 0 32.4 0 0 32.8 0 0 33.2 0 0
          33.6 0 0 34 0 0 34.4 0 0 34.8 0 0
          35.2 0 0 35.6 0 0 36 0 0 36.4 0 0
          36.8 0 0 37.2 0 0 37.6 0 0 38 0 0
          38.4 0 0 38.8 0 0 39.2 0 0 39.6 0 0
          40 0 0 40.4 0 0 40.8 0 0 41.2 0 0
          41.6 0 0 42 0 0 42.4 0 0 42.8 0 0
          43.2 0 0 43.6 0 0 44 0 0 44.4 0 0
          44.8 0 0 45.2 0 0 45.6 0 0 46 0 0
          46.4 0 0 46.8 0 0 47.2 0 0 47.6 0 0
          48 0 0 48.4 0 0 48.8 0 0 49.2 0 0
          49.6 0 0 50 0 0 50.4 0 0 50.8 0 0
          51.2 0 0 51.6 0 0 52 0 0 52.4 0 0
          52.8 0 0 53.2 0 0 53.6 0 0 54 0 0
          54.4 0 0 54.8 0 0 55.2 0 0 55.6 0 0
          56 0 0 56.4 0 0 56.8 0 0 57.2 0 0
          57.6 0 0 58 0 0 58.4 0 0 58.8 0 0
          59.2 0 0 59.6 0 0 60 0 0 60.4 0 0
          60.8 0 0 61.2 0 0 61.6 0 0 62 0 0
          62.4 0 0 62.8 0 0 63.2 0 0 63.6 0 0
          64 0 0 64.4 0 0 64.8 0 0 65.2 0 0
          65.6 0 0 66 0 0 66.4 0 0 66.8 0 0