<?xml version="1.0"?>
<VTKFile type="UnstructuredGrid" version="0.1" byte_order="LittleEndian">
  <UnstructuredGrid>
    <Piece NumberOfCells="1000" NumberOfPoints="1111">
      <CellData Scalars="pressure_water">
        <DataArray type="Float32" Name="pressure_water" NumberOfComponents="1" format="ascii">
          4.95e+07 4.85871e+07 4.78345e+07 4.72315e+07 4.66738e+07 4.6124e+07 4.55755e+07 4.50271e+07 4.44787e+07 4.39303e+07 4.33819e+07 4.28334e+07
          4.22849e+07 4.17364e+07 4.11879e+07 4.06394e+07 4.00909e+07 3.95424e+07 3.89939e+07 3.84454e+07 3.78969e+07 3.73484e+07 3.68e+07 3.62516e+07
          3.57033e+07 3.5155e+07 3.46067e+07 3.40585e+07 3.35104e+07 3.29624e+07 3.24144e+07 3.18665e+07 3.13187e+07 3.0771e+07 3.02235e+07 2.9676e+07
          2.91286e+07 2.85813e+07 2.80334e+07 2.74817e+07 2.69253e+07 2.63661e+07 2.58068e+07 2.52514e+07 2.4705e+07 2.41747e+07 2.36693e+07 2.31989e+07
          2.27733e+07 2.23982e+07 2.20706e+07 2.24214e+07 2.28251e+07 2.32804e+07 2.37782e+07 2.43073e+07 2.48571e+07 2.54194e+07 2.5988e+07 2.65583e+07
          2.71266e+07 2.76907e+07 2.82496e+07 2.88052e+07 2.9361e+07 2.99169e+07 3.04729e+07 3.1029e+07 3.15852e+07 3.21415e+07 3.26979e+07 3.32544e+07
          3.3811e+07 3.43676e+07 3.49244e+07 3.54811e+07 3.60379e+07 3.65948e+07 3.71517e+07 3.77086e+07 3.82655e+07 3.88224e+07 3.93793e+07 3.99363e+07
          4.04932e+07 4.10501e+07 4.1607e+07 4.21639e+07 4.27208e+07 4.32777e+07 4.38346e+07 4.43914e+07 4.49482e+07 4.55051e+07 4.60621e+07 4.66205e+07
          4.71875e+07 4.78022e+07 4.85704e+07 4.95e+07 4.95e+07 4.85665e+07 4.78171e+07 4.72198e+07 4.66622e+07 4.61123e+07 4.55638e+07 4.50154e+07
          4.44671e+07 4.39187e+07 4.33702e+07 4.28218e+07 4.22733e+07 4.17248e+07 4.11763e+07 4.06278e+07 4.00792e+07 3.95307e+07 3.89822e+07 3.84337e+07
          3.78852e+07 3.73368e+07 3.67884e+07 3.624e+07 3.56916e+07 3.51433e+07 3.45951e+07 3.40469e+07 3.34988e+07 3.29507e+07 3.24028e+07 3.18549e+07
          3.13071e+07 3.07594e+07 3.02118e+07 2.96643e+07 2.9117e+07 2.85697e+07 2.80218e+07 2.747e+07 2.69136e+07 2.63544e+07 2.57951e+07 2.52396e+07
          2.46932e+07 2.41629e+07 2.36575e+07 2.31871e+07 2.27614e+07 2.23864e+07 2.2058e+07 2.24095e+07 2.28132e+07 2.32685e+07 2.37664e+07 2.42955e+07
          2.48453e+07 2.54077e+07 2.59763e+07 2.65466e+07 2.71149e+07 2.7679e+07 2.8238e+07 2.87936e+07 2.93494e+07 2.99052e+07 3.04612e+07 3.10173e+07
          3.15735e+07 3.21299e+07 3.26863e+07 3.32428e+07 3.37994e+07 3.4356e+07 3.49127e+07 3.54695e+07 3.60263e+07 3.65832e+07 3.714e+07 3.76969e+07
          3.82538e+07 3.88108e+07 3.93677e+07 3.99246e+07 4.04815e+07 4.10385e+07 4.15954e+07 4.21523e+07 4.27092e+07 4.3266e+07 4.38229e+07 4.43797e+07
          4.49366e+07 4.54934e+07 4.60505e+07 4.66089e+07 4.71758e+07 4.77845e+07 4.85498e+07 4.95e+07 4.95e+07 4.8546e+07 4.78045e+07 4.72083e+07
          4.66506e+07 4.61007e+07 4.55522e+07 4.50038e+07 4.44554e+07 4.3907e+07 4.33586e+07 4.28101e+07 4.22616e+07 4.17131e+07 4.11646e+07 4.06161e+07
          4.00676e+07 3.95191e+07 3.89706e+07 3.84221e+07 3.78736e+07 3.73251e+07 3.67767e+07 3.62283e+07 3.568e+07 3.51317e+07 3.45834e+07 3.40353e+07
          3.34871e+07 3.29391e+07 3.23911e+07 3.18433e+07 3.12955e+07 3.07478e+07 3.02002e+07 2.96527e+07 2.91053e+07 2.85581e+07 2.80101e+07 2.74583e+07
          2.69019e+07 2.63426e+07 2.57833e+07 2.52278e+07 2.46814e+07 2.41511e+07 2.36456e+07 2.31752e+07 2.27495e+07 2.23744e+07 2.20446e+07 2.23976e+07
          2.28013e+07 2.32566e+07 2.37545e+07 2.42836e+07 2.48335e+07 2.53959e+07 2.59646e+07 2.65348e+07 2.71032e+07 2.76674e+07 2.82263e+07 2.8782e+07
          2.93377e+07 2.98936e+07 3.04496e+07 3.10057e+07 3.15619e+07 3.21182e+07 3.26746e+07 3.32311e+07 3.37877e+07 3.43444e+07 3.49011e+07 3.54578e+07
          3.60147e+07 3.65715e+07 3.71284e+07 3.76853e+07 3.82422e+07 3.87991e+07 3.9356e+07 3.9913e+07 4.04699e+07 4.10268e+07 4.15837e+07 4.21406e+07
          4.26975e+07 4.32544e+07 4.38112e+07 4.43681e+07 4.49249e+07 4.54818e+07 4.60388e+07 4.65973e+07 4.71642e+07 4.77717e+07 4.85293e+07 4.95e+07
          4.95e+07 4.85262e+07 4.77924e+07 4.71967e+07 4.66389e+07 4.6089e+07 4.55405e+07 4.49921e+07 4.44438e+07 4.38954e+07 4.33469e+07 4.27985e+07
          4.225e+07 4.17015e+07 4.1153e+07 4.06045e+07 4.00559e+07 3.95074e+07 3.89589e+07 3.84104e+07 3.78619e+07 3.73135e+07 3.67651e+07 3.62167e+07
          3.56683e+07 3.512e+07 3.45718e+07 3.40236e+07 3.34755e+07 3.29275e+07 3.23795e+07 3.18316e+07 3.12838e+07 3.07362e+07 3.01886e+07 2.96411e+07
          2.90937e+07 2.85465e+07 2.79985e+07 2.74467e+07 2.68902e+07 2.63309e+07 2.57716e+07 2.5216e+07 2.46696e+07 2.41392e+07 2.36337e+07 2.31632e+07
          2.27375e+07 2.23624e+07 2.20304e+07 2.23856e+07 2.27893e+07 2.32447e+07 2.37426e+07 2.42718e+07 2.48217e+07 2.53841e+07 2.59528e+07 2.65231e+07
          2.70916e+07 2.76557e+07 2.82147e+07 2.87704e+07 2.93261e+07 2.9882e+07 3.0438e+07 3.09941e+07 3.15503e+07 3.21066e+07 3.2663e+07 3.32195e+07
          3.37761e+07 3.43327e+07 3.48894e+07 3.54462e+07 3.6003e+07 3.65599e+07 3.71167e+07 3.76736e+07 3.82306e+07 3.87875e+07 3.93444e+07 3.99013e+07
          4.04582e+07 4.10152e+07 4.15721e+07 4.2129e+07 4.26859e+07 4.32427e+07 4.37996e+07 4.43564e+07 4.49133e+07 4.54701e+07 4.60272e+07 4.65857e+07
          4.71527e+07 4.77596e+07 4.85094e+07 4.95e+07 4.95e+07 4.85086e+07 4.77807e+07 4.71852e+07 4.66273e+07 4.60774e+07 4.55288e+07 4.49805e+07
          4.44321e+07 4.38837e+07 4.33353e+07 4.27868e+07 4.22383e+07 4.16898e+07 4.11413e+07 4.05928e+07 4.00443e+07 3.94958e+07 3.89473e+07 3.83988e+07
          3.78503e+07 3.73018e+07 3.67534e+07 3.6205e+07 3.56567e+07 3.51084e+07 3.45602e+07 3.4012e+07 3.34639e+07 3.29158e+07 3.23679e+07 3.182e+07
          3.12722e+07 3.07245e+07 3.01769e+07 2.96294e+07 2.90821e+07 2.85348e+07 2.79869e+07 2.7435e+07 2.68785e+07 2.63192e+07 2.57598e+07 2.52042e+07
          2.46577e+07 2.41273e+07 2.36217e+07 2.31512e+07 2.27254e+07 2.23504e+07 2.20156e+07 2.23735e+07 2.27772e+07 2.32326e+07 2.37307e+07 2.42599e+07
          2.48098e+07 2.53723e+07 2.59411e+07 2.65114e+07 2.70799e+07 2.76441e+07 2.82031e+07 2.87587e+07 2.93145e+07 2.98703e+07 3.04263e+07 3.09824e+07
          3.15386e+07 3.2095e+07 3.26514e+07 3.32079e+07 3.37644e+07 3.43211e+07 3.48778e+07 3.54346e+07 3.59914e+07 3.65482e+07 3.71051e+07 3.7662e+07
          3.82189e+07 3.87758e+07 3.93328e+07 3.98897e+07 4.04466e+07 4.10035e+07 4.15604e+07 4.21173e+07 4.26742e+07 4.32311e+07 4.37879e+07 4.43448e+07
          4.49016e+07 4.54584e+07 4.60155e+07 4.65741e+07 4.71412e+07 4.77478e+07 4.84914e+07 4.95e+07 4.94732e+07 4.84934e+07 4.77692e+07 4.71737e+07
          4.66157e+07 4.60657e+07 4.55172e+07 4.49688e+07 4.44204e+07 4.3872e+07 4.33236e+07 4.27752e+07 4.22267e+07 4.16782e+07 4.11297e+07 4.05812e+07
          4.00326e+07 3.94841e+07 3.89356e+07 3.83871e+07 3.78387e+07 3.72902e+07 3.67418e+07 3.61934e+07 3.56451e+07 3.50968e+07 3.45485e+07 3.40003e+07
          3.34522e+07 3.29042e+07 3.23562e+07 3.18084e+07 3.12606e+07 3.07129e+07 3.01653e+07 2.96178e+07 2.90704e+07 2.85232e+07 2.79752e+07 2.74233e+07
          2.68668e+07 2.63074e+07 2.5748e+07 2.51924e+07 2.46458e+07 2.41153e+07 2.36097e+07 2.31391e+07 2.27133e+07 2.23383e+07 2.2e+07 2.23614e+07
          2.27651e+07 2.32206e+07 2.37187e+07 2.4248e+07 2.4798e+07 2.53605e+07 2.59293e+07 2.64997e+07 2.70682e+07 2.76324e+07 2.81914e+07 2.87471e+07
          2.93028e+07 2.98587e+07 3.04147e+07 3.09708e+07 3.1527e+07 3.20833e+07 3.26397e+07 3.31962e+07 3.37528e+07 3.43095e+07 3.48662e+07 3.54229e+07
          3.59797e+07 3.65366e+07 3.70935e+07 3.76504e+07 3.82073e+07 3.87642e+07 3.93211e+07 3.9878e+07 4.04349e+07 4.09919e+07 4.15488e+07 4.21057e+07
          4.26626e+07 4.32194e+07 4.37763e+07 4.43331e+07 4.48899e+07 4.54468e+07 4.60039e+07 4.65625e+07 4.71297e+07 4.77363e+07 4.8476e+07 4.94732e+07
          4.94476e+07 4.84796e+07 4.77577e+07 4.71622e+07 4.66041e+07 4.60541e+07 4.55055e+07 4.49572e+07 4.44088e+07 4.38604e+07 4.3312e+07 4.27635e+07
          4.2215e+07 4.16665e+07 4.1118e+07 4.05695e+07 4.0021e+07 3.94725e+07 3.8924e+07 3.83755e+07 3.7827e+07 3.72786e+07 3.67301e+07 3.61818e+07
          3.56334e+07 3.50851e+07 3.45369e+07 3.39887e+07 3.34406e+07 3.28926e+07 3.23446e+07 3.17967e+07 3.12489e+07 3.07013e+07 3.01537e+07 2.96062e+07
          2.90588e+07 2.85116e+07 2.79636e+07 2.74116e+07 2.68551e+07 2.62957e+07 2.57362e+07 2.51805e+07 2.46339e+07 2.41033e+07 2.35976e+07 2.3127e+07
          2.27012e+07 2.23262e+07 2.2e+07 2.23492e+07 2.27529e+07 2.32085e+07 2.37067e+07 2.4236e+07 2.47861e+07 2.53487e+07 2.59175e+07 2.64879e+07
          2.70565e+07 2.76207e+07 2.81798e+07 2.87355e+07 2.92912e+07 2.98471e+07 3.04031e+07 3.09592e+07 3.15154e+07 3.20717e+07 3.26281e+07 3.31846e+07
          3.37412e+07 3.42978e+07 3.48545e+07 3.54113e+07 3.59681e+07 3.65249e+07 3.70818e+07 3.76387e+07 3.81956e+07 3.87525e+07 3.93095e+07 3.98664e+07
          4.04233e+07 4.09802e+07 4.15371e+07 4.2094e+07 4.26509e+07 4.32078e+07 4.37646e+07 4.43215e+07 4.48783e+07 4.54351e+07 4.59922e+07 4.65508e+07
          4.71182e+07 4.77248e+07 4.84621e+07 4.94474e+07 4.9423e+07 4.84668e+07 4.77463e+07 4.71507e+07 4.65925e+07 4.60424e+07 4.54939e+07 4.49455e+07
          4.43971e+07 4.38487e+07 4.33003e+07 4.27518e+07 4.22034e+07 4.16549e+07 4.11064e+07 4.05579e+07 4.00093e+07 3.94608e+07 3.89123e+07 3.83638e+07
          3.78154e+07 3.72669e+07 3.67185e+07 3.61701e+07 3.56218e+07 3.50735e+07 3.45252e+07 3.39771e+07 3.3429e+07 3.28809e+07 3.2333e+07 3.17851e+07
          3.12373e+07 3.06896e+07 3.0142e+07 2.95946e+07 2.90472e+07 2.84999e+07 2.79519e+07 2.74e+07 2.68434e+07 2.62839e+07 2.57244e+07 2.51687e+07
          2.4622e+07 2.40913e+07 2.35855e+07 2.31148e+07 2.26889e+07 2.2314e+07 2.2e+07 2.2337e+07 2.27407e+07 2.31963e+07 2.36946e+07 2.4224e+07
          2.47742e+07 2.53368e+07 2.59057e+07 2.64762e+07 2.70448e+07 2.76091e+07 2.81682e+07 2.87238e+07 2.92796e+07 2.98354e+07 3.03914e+07 3.09475e+07
          3.15037e+07 3.206e+07 3.26165e+07 3.3173e+07 3.37295e+07 3.42862e+07 3.48429e+07 3.53996e+07 3.59565e+07 3.65133e+07 3.70702e+07 3.76271e+07
          3.8184e+07 3.87409e+07 3.92978e+07 3.98547e+07 4.04116e+07 4.09686e+07 4.15255e+07 4.20824e+07 4.26392e+07 4.31961e+07 4.3753e+07 4.43098e+07
          4.48666e+07 4.54235e+07 4.59805e+07 4.65392e+07 4.71066e+07 4.77134e+07 4.84492e+07 4.94228e+07 4.93995e+07 4.84547e+07 4.77349e+07 4.71391e+07
          4.65808e+07 4.60308e+07 4.54822e+07 4.49338e+07 4.43855e+07 4.38371e+07 4.32886e+07 4.27402e+07 4.21917e+07 4.16432e+07 4.10947e+07 4.05462e+07
          3.99977e+07 3.94492e+07 3.89007e+07 3.83522e+07 3.78037e+07 3.72553e+07 3.67069e+07 3.61585e+07 3.56101e+07 3.50618e+07 3.45136e+07 3.39654e+07
          3.34173e+07 3.28693e+07 3.23213e+07 3.17735e+07 3.12257e+07 3.0678e+07 3.01304e+07 2.95829e+07 2.90356e+07 2.84883e+07 2.79403e+07 2.73883e+07
          2.68317e+07 2.62722e+07 2.57126e+07 2.51568e+07 2.461e+07 2.40793e+07 2.35734e+07 2.31026e+07 2.26766e+07 2.23017e+07 2.2e+07 2.23246e+07
          2.27284e+07 2.31841e+07 2.36825e+07 2.4212e+07 2.47623e+07 2.5325e+07 2.58939e+07 2.64645e+07 2.70331e+07 2.75974e+07 2.81565e+07 2.87122e+07
          2.9268e+07 2.98238e+07 3.03798e+07 3.09359e+07 3.14921e+07 3.20484e+07 3.26048e+07 3.31613e+07 3.37179e+07 3.42745e+07 3.48312e+07 3.5388e+07
          3.59448e+07 3.65017e+07 3.70585e+07 3.76154e+07 3.81723e+07 3.87292e+07 3.92862e+07 3.98431e+07 4.04e+07 4.09569e+07 4.15138e+07 4.20707e+07
          4.26276e+07 4.31845e+07 4.37413e+07 4.42981e+07 4.4855e+07 4.54118e+07 4.59689e+07 4.65276e+07 4.70951e+07 4.7702e+07 4.8437e+07 4.93993e+07
          4.93785e+07 4.84432e+07 4.77233e+07 4.71275e+07 4.65692e+07 4.60191e+07 4.54705e+07 4.49222e+07 4.43738e+07 4.38254e+07 4.3277e+07 4.27285e+07
          4.21801e+07 4.16316e+07 4.10831e+07 4.05346e+07 3.9986e+07 3.94375e+07 3.8889e+07 3.83405e+07 3.77921e+07 3.72436e+07 3.66952e+07 3.61468e+07
          3.55985e+07 3.50502e+07 3.4502e+07 3.39538e+07 3.34057e+07 3.28577e+07 3.23097e+07 3.17618e+07 3.1214e+07 3.06664e+07 3.01188e+07 2.95713e+07
          2.90239e+07 2.84767e+07 2.79286e+07 2.73766e+07 2.682e+07 2.62604e+07 2.57008e+07 2.51449e+07 2.45981e+07 2.40672e+07 2.35612e+07 2.30903e+07
          2.26643e+07 2.22894e+07 2.2e+07 2.23122e+07 2.2716e+07 2.31718e+07 2.36703e+07 2.42e+07 2.47503e+07 2.53131e+07 2.58821e+07 2.64527e+07
          2.70214e+07 2.75857e+07 2.81449e+07 2.87006e+07 2.92563e+07 2.98122e+07 3.03682e+07 3.09243e+07 3.14805e+07 3.20368e+07 3.25932e+07 3.31497e+07
          3.37063e+07 3.42629e+07 3.48196e+07 3.53764e+07 3.59332e+07 3.649e+07 3.70469e+07 3.76038e+07 3.81607e+07 3.87176e+07 3.92745e+07 3.98314e+07
          4.03883e+07 4.09453e+07 4.15022e+07 4.20591e+07 4.26159e+07 4.31728e+07 4.37297e+07 4.42865e+07 4.48433e+07 4.54002e+07 4.59572e+07 4.65159e+07
          4.70834e+07 4.76905e+07 4.84256e+07 4.93781e+07
        </DataArray>
        <DataArray type="Float32" Name="pressure_oil" NumberOfComponents="1" format="ascii">
          4.95e+07 4.85871e+07 4.78345e+07 4.72315e+07 4.66738e+07 4.6124e+07 4.55755e+07 4.50271e+07 4.44787e+07 4.39303e+07 4.33819e+07 4.28334e+07
          4.22849e+07 4.17364e+07 4.11879e+07 4.06394e+07 4.00909e+07 3.95424e+07 3.89939e+07 3.84454e+07 3.78969e+07 3.73484e+07 3.68e+07 3.62516e+07
          3.57033e+07 3.5155e+07 3.46067e+07 3.40585e+07 3.35104e+07 3.29624e+07 3.24144e+07 3.18665e+07 3.13187e+07 3.0771e+07 3.02235e+07 2.9676e+07
          2.91286e+07 2.85813e+07 2.80334e+07 2.74817e+07 2.69253e+07 2.63661e+07 2.58068e+07 2.52514e+07 2.4705e+07 2.41747e+07 2.36693e+07 2.31989e+07
          2.27733e+07 2.23982e+07 2.20706e+07 2.24214e+07 2.28251e+07 2.32804e+07 2.37782e+07 2.43073e+07 2.48571e+07 2.54194e+07 2.5988e+07 2.65583e+07
          2.71266e+07 2.76907e+07 2.82496e+07 2.88052e+07 2.9361e+07 2.99169e+07 3.04729e+07 3.1029e+07 3.15852e+07 3.21415e+07 3.26979e+07 3.32544e+07
          3.3811e+07 3.43676e+07 3.49244e+07 3.54811e+07 3.60379e+07 3.65948e+07 3.71517e+07 3.77086e+07 3.82655e+07 3.88224e+07 3.93793e+07 3.99363e+07
          4.04932e+07 4.10501e+07 4.1607e+07 4.21639e+07 4.27208e+07 4.32777e+07 4.38346e+07 4.43914e+07 4.49482e+07 4.55051e+07 4.60621e+07 4.66205e+07
          4.71875e+07 4.78022e+07 4.85704e+07 4.95e+07 4.95e+07 4.85665e+07 4.78171e+07 4.72198e+07 4.66622e+07 4.61123e+07 4.55638e+07 4.50154e+07
          4.44671e+07 4.39187e+07 4.33702e+07 4.28218e+07 4.22733e+07 4.17248e+07 4.11763e+07 4.06278e+07 4.00792e+07 3.95307e+07 3.89822e+07 3.84337e+07
          3.78852e+07 3.73368e+07 3.67884e+07 3.624e+07 3.56916e+07 3.51433e+07 3.45951e+07 3.40469e+07 3.34988e+07 3.29507e+07 3.24028e+07 3.18549e+07
          3.13071e+07 3.07594e+07 3.02118e+07 2.96643e+07 2.9117e+07 2.85697e+07 2.80218e+07 2.747e+07 2.69136e+07 2.63544e+07 2.57951e+07 2.52396e+07
          2.46932e+07 2.41629e+07 2.36575e+07 2.31871e+07 2.27614e+07 2.23864e+07 2.2058e+07 2.24095e+07 2.28132e+07 2.32685e+07 2.37664e+07 2.42955e+07
          2.48453e+07 2.54077e+07 2.59763e+07 2.65466e+07 2.71149e+07 2.7679e+07 2.8238e+07 2.87936e+07 2.93494e+07 2.99052e+07 3.04612e+07 3.10173e+07
          3.15735e+07 3.21299e+07 3.26863e+07 3.32428e+07 3.37994e+07 3.4356e+07 3.49127e+07 3.54695e+07 3.60263e+07 3.65832e+07 3.714e+07 3.76969e+07
          3.82538e+07 3.88108e+07 3.93677e+07 3.99246e+07 4.04815e+07 4.10385e+07 4.15954e+07 4.21523e+07 4.27092e+07 4.3266e+07 4.38229e+07 4.43797e+07
          4.49366e+07 4.54934e+07 4.60505e+07 4.66089e+07 4.71758e+07 4.77845e+07 4.85498e+07 4.95e+07 4.95e+07 4.8546e+07 4.78045e+07 4.72083e+07
          4.66506e+07 4.61007e+07 4.55522e+07 4.50038e+07 4.44554e+07 4.3907e+07 4.33586e+07 4.28101e+07 4.22616e+07 4.17131e+07 4.11646e+07 4.06161e+07
          4.00676e+07 3.95191e+07 3.89706e+07 3.84221e+07 3.78736e+07 3.73251e+07 3.67767e+07 3.62283e+07 3.568e+07 3.51317e+07 3.45834e+07 3.40353e+07
          3.34871e+07 3.29391e+07 3.23911e+07 3.18433e+07 3.12955e+07 3.07478e+07 3.02002e+07 2.96527e+07 2.91053e+07 2.85581e+07 2.80101e+07 2.74583e+07
          2.69019e+07 2.63426e+07 2.57833e+07 2.52278e+07 2.46814e+07 2.41511e+07 2.36456e+07 2.31752e+07 2.27495e+07 2.23744e+07 2.20446e+07 2.23976e+07
          2.28013e+07 2.32566e+07 2.37545e+07 2.42836e+07 2.48335e+07 2.53959e+07 2.59646e+07 2.65348e+07 2.71032e+07 2.76674e+07 2.82263e+07 2.8782e+07
          2.93377e+07 2.98936e+07 3.04496e+07 3.10057e+07 3.15619e+07 3.21182e+07 3.26746e+07 3.32311e+07 3.37877e+07 3.43444e+07 3.49011e+07 3.54578e+07
          3.60147e+07 3.65715e+07 3.71284e+07 3.76853e+07 3.82422e+07 3.87991e+07 3.9356e+07 3.9913e+07 4.04699e+07 4.10268e+07 4.15837e+07 4.21406e+07
          4.26975e+07 4.32544e+07 4.38112e+07 4.43681e+07 4.49249e+07 4.54818e+07 4.60388e+07 4.65973e+07 4.71642e+07 4.77717e+07 4.85293e+07 4.95e+07
          4.95e+07 4.85262e+07 4.77924e+07 4.71967e+07 4.66389e+07 4.6089e+07 4.55405e+07 4.49921e+07 4.44438e+07 4.38954e+07 4.33469e+07 4.27985e+07
          4.225e+07 4.17015e+07 4.1153e+07 4.06045e+07 4.00559e+07 3.95074e+07 3.89589e+07 3.84104e+07 3.78619e+07 3.73135e+07 3.67651e+07 3.62167e+07
          3.56683e+07 3.512e+07 3.45718e+07 3.40236e+07 3.34755e+07 3.29275e+07 3.23795e+07 3.18316e+07 3.12838e+07 3.07362e+07 3.01886e+07 2.96411e+07
          2.90937e+07 2.85465e+07 2.79985e+07 2.74467e+07 2.68902e+07 2.63309e+07 2.57716e+07 2.5216e+07 2.46696e+07 2.41392e+07 2.36337e+07 2.31632e+07
          2.27375e+07 2.23624e+07 2.20304e+07 2.23856e+07 2.27893e+07 2.32447e+07 2.37426e+07 2.42718e+07 2.48217e+07 2.53841e+07 2.59528e+07 2.65231e+07
          2.70916e+07 2.76557e+07 2.82147e+07 2.87704e+07 2.93261e+07 2.9882e+07 3.0438e+07 3.09941e+07 3.15503e+07 3.21066e+07 3.2663e+07 3.32195e+07
          3.37761e+07 3.43327e+07 3.48894e+07 3.54462e+07 3.6003e+07 3.65599e+07 3.71167e+07 3.76736e+07 3.82306e+07 3.87875e+07 3.93444e+07 3.99013e+07
          4.04582e+07 4.10152e+07 4.15721e+07 4.2129e+07 4.26859e+07 4.32427e+07 4.37996e+07 4.43564e+07 4.49133e+07 4.54701e+07 4.60272e+07 4.65857e+07
          4.71527e+07 4.77596e+07 4.85094e+07 4.95e+07 4.95e+07 4.85086e+07 4.77807e+07 4.71852e+07 4.66273e+07 4.60774e+07 4.55288e+07 4.49805e+07
          4.44321e+07 4.38837e+07 4.33353e+07 4.27868e+07 4.22383e+07 4.16898e+07 4.11413e+07 4.05928e+07 4.00443e+07 3.94958e+07 3.89473e+07 3.83988e+07
          3.78503e+07 3.73018e+07 3.67534e+07 3.6205e+07 3.56567e+07 3.51084e+07 3.45602e+07 3.4012e+07 3.34639e+07 3.29158e+07 3.23679e+07 3.182e+07
          3.12722e+07 3.07245e+07 3.01769e+07 2.96294e+07 2.90821e+07 2.85348e+07 2.79869e+07 2.7435e+07 2.68785e+07 2.63192e+07 2.57598e+07 2.52042e+07
          2.46577e+07 2.41273e+07 2.36217e+07 2.31512e+07 2.27254e+07 2.23504e+07 2.20156e+07 2.23735e+07 2.27772e+07 2.32326e+07 2.37307e+07 2.42599e+07
          2.48098e+07 2.53723e+07 2.59411e+07 2.65114e+07 2.70799e+07 2.76441e+07 2.82031e+07 2.87587e+07 2.93145e+07 2.98703e+07 3.04263e+07 3.09824e+07
          3.15386e+07 3.2095e+07 3.26514e+07 3.32079e+07 3.37644e+07 3.43211e+07 3.48778e+07 3.54346e+07 3.59914e+07 3.65482e+07 3.71051e+07 3.7662e+07
          3.82189e+07 3.87758e+07 3.93328e+07 3.98897e+07 4.04466e+07 4.10035e+07 4.15604e+07 4.21173e+07 4.26742e+07 4.32311e+07 4.37879e+07 4.43448e+07
          4.49016e+07 4.54584e+07 4.60155e+07 4.65741e+07 4.71412e+07 4.77478e+07 4.84914e+07 4.95e+07 4.94732e+07 4.84934e+07 4.77692e+07 4.71737e+07
          4.66157e+07 4.60657e+07 4.55172e+07 4.49688e+07 4.44204e+07 4.3872e+07 4.33236e+07 4.27752e+07 4.22267e+07 4.16782e+07 4.11297e+07 4.05812e+07
          4.00326e+07 3.94841e+07 3.89356e+07 3.83871e+07 3.78387e+07 3.72902e+07 3.67418e+07 3.61934e+07 3.56451e+07 3.50968e+07 3.45485e+07 3.40003e+07
          3.34522e+07 3.29042e+07 3.23562e+07 3.18084e+07 3.12606e+07 3.07129e+07 3.01653e+07 2.96178e+07 2.90704e+07 2.85232e+07 2.79752e+07 2.74233e+07
          2.68668e+07 2.63074e+07 2.5748e+07 2.51924e+07 2.46458e+07 2.41153e+07 2.36097e+07 2.31391e+07 2.27133e+07 2.23383e+07 2.2e+07 2.23614e+07
          2.27651e+07 2.32206e+07 2.37187e+07 2.4248e+07 2.4798e+07 2.53605e+07 2.59293e+07 2.64997e+07 2.70682e+07 2.76324e+07 2.81914e+07 2.87471e+07
          2.93028e+07 2.98587e+07 3.04147e+07 3.09708e+07 3.1527e+07 3.20833e+07 3.26397e+07 3.31962e+07 3.37528e+07 3.43095e+07 3.48662e+07 3.54229e+07
          3.59797e+07 3.65366e+07 3.70935e+07 3.76504e+07 3.82073e+07 3.87642e+07 3.93211e+07 3.9878e+07 4.04349e+07 4.09919e+07 4.15488e+07 4.21057e+07
          4.26626e+07 4.32194e+07 4.37763e+07 4.43331e+07 4.48899e+07 4.54468e+07 4.60039e+07 4.65625e+07 4.71297e+07 4.77363e+07 4.8476e+07 4.94732e+07
          4.94476e+07 4.84796e+07 4.77577e+07 4.71622e+07 4.66041e+07 4.60541e+07 4.55055e+07 4.49572e+07 4.44088e+07 4.38604e+07 4.3312e+07 4.27635e+07
          4.2215e+07 4.16665e+07 4.1118e+07 4.05695e+07 4.0021e+07 3.94725e+07 3.8924e+07 3.83755e+07 3.7827e+07 3.72786e+07 3.67301e+07 3.61818e+07
          3.56334e+07 3.50851e+07 3.45369e+07 3.39887e+07 3.34406e+07 3.28926e+07 3.23446e+07 3.17967e+07 3.12489e+07 3.07013e+07 3.01537e+07 2.96062e+07
          2.90588e+07 2.85116e+07 2.79636e+07 2.74116e+07 2.68551e+07 2.62957e+07 2.57362e+07 2.51805e+07 2.46339e+07 2.41033e+07 2.35976e+07 2.3127e+07
          2.27012e+07 2.23262e+07 2.2e+07 2.23492e+07 2.27529e+07 2.32085e+07 2.37067e+07 2.4236e+07 2.47861e+07 2.53487e+07 2.59175e+07 2.64879e+07
          2.70565e+07 2.76207e+07 2.81798e+07 2.87355e+07 2.92912e+07 2.98471e+07 3.04031e+07 3.09592e+07 3.15154e+07 3.20717e+07 3.26281e+07 3.31846e+07
          3.37412e+07 3.42978e+07 3.48545e+07 3.54113e+07 3.59681e+07 3.65249e+07 3.70818e+07 3.76387e+07 3.81956e+07 3.87525e+07 3.93095e+07 3.98664e+07
          4.04233e+07 4.09802e+07 4.15371e+07 4.2094e+07 4.26509e+07 4.32078e+07 4.37646e+07 4.43215e+07 4.48783e+07 4.54351e+07 4.59922e+07 4.65508e+07
          4.71182e+07 4.77248e+07 4.84621e+07 4.94474e+07 4.9423e+07 4.84668e+07 4.77463e+07 4.71507e+07 4.65925e+07 4.60424e+07 4.54939e+07 4.49455e+07
          4.43971e+07 4.38487e+07 4.33003e+07 4.27518e+07 4.22034e+07 4.16549e+07 4.11064e+07 4.05579e+07 4.00093e+07 3.94608e+07 3.89123e+07 3.83638e+07
          3.78154e+07 3.72669e+07 3.67185e+07 3.61701e+07 3.56218e+07 3.50735e+07 3.45252e+07 3.39771e+07 3.3429e+07 3.28809e+07 3.2333e+07 3.17851e+07
          3.12373e+07 3.06896e+07 3.0142e+07 2.95946e+07 2.90472e+07 2.84999e+07 2.79519e+07 2.74e+07 2.68434e+07 2.62839e+07 2.57244e+07 2.51687e+07
          2.4622e+07 2.40913e+07 2.35855e+07 2.31148e+07 2.26889e+07 2.2314e+07 2.2e+07 2.2337e+07 2.27407e+07 2.31963e+07 2.36946e+07 2.4224e+07
          2.47742e+07 2.53368e+07 2.59057e+07 2.64762e+07 2.70448e+07 2.76091e+07 2.81682e+07 2.87238e+07 2.92796e+07 2.98354e+07 3.03914e+07 3.09475e+07
          3.15037e+07 3.206e+07 3.26165e+07 3.3173e+07 3.37295e+07 3.42862e+07 3.48429e+07 3.53996e+07 3.59565e+07 3.65133e+07 3.70702e+07 3.76271e+07
          3.8184e+07 3.87409e+07 3.92978e+07 3.98547e+07 4.04116e+07 4.09686e+07 4.15255e+07 4.20824e+07 4.26392e+07 4.31961e+07 4.3753e+07 4.43098e+07
          4.48666e+07 4.54235e+07 4.59805e+07 4.65392e+07 4.71066e+07 4.77134e+07 4.84492e+07 4.94228e+07 4.93995e+07 4.84547e+07 4.77349e+07 4.71391e+07
          4.65808e+07 4.60308e+07 4.54822e+07 4.49338e+07 4.43855e+07 4.38371e+07 4.32886e+07 4.27402e+07 4.21917e+07 4.16432e+07 4.10947e+07 4.05462e+07
          3.99977e+07 3.94492e+07 3.89007e+07 3.83522e+07 3.78037e+07 3.72553e+07 3.67069e+07 3.61585e+07 3.56101e+07 3.50618e+07 3.45136e+07 3.39654e+07
          3.34173e+07 3.28693e+07 3.23213e+07 3.17735e+07 3.12257e+07 3.0678e+07 3.01304e+07 2.95829e+07 2.90356e+07 2.84883e+07 2.79403e+07 2.73883e+07
          2.68317e+07 2.62722e+07 2.57126e+07 2.51568e+07 2.461e+07 2.40793e+07 2.35734e+07 2.31026e+07 2.26766e+07 2.23017e+07 2.2e+07 2.23246e+07
          2.27284e+07 2.31841e+07 2.36825e+07 2.4212e+07 2.47623e+07 2.5325e+07 2.58939e+07 2.64645e+07 2.70331e+07 2.75974e+07 2.81565e+07 2.87122e+07
          2.9268e+07 2.98238e+07 3.03798e+07 3.09359e+07 3.14921e+07 3.20484e+07 3.26048e+07 3.31613e+07 3.37179e+07 3.42745e+07 3.48312e+07 3.5388e+07
          3.59448e+07 3.65017e+07 3.70585e+07 3.76154e+07 3.81723e+07 3.87292e+07 3.92862e+07 3.98431e+07 4.04e+07 4.09569e+07 4.15138e+07 4.20707e+07
          4.26276e+07 4.31845e+07 4.37413e+07 4.42981e+07 4.4855e+07 4.54118e+07 4.59689e+07 4.65276e+07 4.70951e+07 4.7702e+07 4.8437e+07 4.93993e+07
          4.93785e+07 4.84432e+07 4.77233e+07 4.71275e+07 4.65692e+07 4.60191e+07 4.54705e+07 4.49222e+07 4.43738e+07 4.38254e+07 4.3277e+07 4.27285e+07
          4.21801e+07 4.16316e+07 4.10831e+07 4.05346e+07 3.9986e+07 3.94375e+07 3.8889e+07 3.83405e+07 3.77921e+07 3.72436e+07 3.66952e+07 3.61468e+07
          3.55985e+07 3.50502e+07 3.4502e+07 3.39538e+07 3.34057e+07 3.28577e+07 3.23097e+07 3.17618e+07 3.1214e+07 3.06664e+07 3.01188e+07 2.95713e+07
          2.90239e+07 2.84767e+07 2.79286e+07 2.73766e+07 2.682e+07 2.62604e+07 2.57008e+07 2.51449e+07 2.45981e+07 2.40672e+07 2.35612e+07 2.30903e+07
          2.26643e+07 2.22894e+07 2.2e+07 2.23122e+07 2.2716e+07 2.31718e+07 2.36703e+07 2.42e+07 2.47503e+07 2.53131e+07 2.58821e+07 2.64527e+07
          2.70214e+07 2.75857e+07 2.81449e+07 2.87006e+07 2.92563e+07 2.98122e+07 3.03682e+07 3.09243e+07 3.14805e+07 3.20368e+07 3.25932e+07 3.31497e+07
          3.37063e+07 3.42629e+07 3.48196e+07 3.53764e+07 3.59332e+07 3.649e+07 3.70469e+07 3.76038e+07 3.81607e+07 3.87176e+07 3.92745e+07 3.98314e+07
          4.03883e+07 4.09453e+07 4.15022e+07 4.20591e+07 4.26159e+07 4.31728e+07 4.37297e+07 4.42865e+07 4.48433e+07 4.54002e+07 4.59572e+07 4.65159e+07
          4.70834e+07 4.76905e+07 4.84256e+07 4.93781e+07
        </DataArray>
        <DataArray type="Float32" Name="pressure_gas" NumberOfComponents="1" format="ascii">
          4.95e+07 4.85871e+07 4.78345e+07 4.72315e+07 4.66738e+07 4.6124e+07 4.55755e+07 4.50271e+07 4.44787e+07 4.39303e+07 4.33819e+07 4.28334e+07
          4.22849e+07 4.17364e+07 4.11879e+07 4.06394e+07 4.00909e+07 3.95424e+07 3.89939e+07 3.84454e+07 3.78969e+07 3.73484e+07 3.68e+07 3.62516e+07
          3.57033e+07 3.5155e+07 3.46067e+07 3.40585e+07 3.35104e+07 3.29624e+07 3.24144e+07 3.18665e+07 3.13187e+07 3.0771e+07 3.02235e+07 2.9676e+07
          2.91286e+07 2.85813e+07 2.80334e+07 2.74817e+07 2.69253e+07 2.63661e+07 2.58068e+07 2.52514e+07 2.4705e+07 2.41747e+07 2.36693e+07 2.31989e+07
          2.27733e+07 2.23982e+07 2.20706e+07 2.24214e+07 2.28251e+07 2.32804e+07 2.37782e+07 2.43073e+07 2.48571e+07 2.54194e+07 2.5988e+07 2.65583e+07
          2.71266e+07 2.76907e+07 2.82496e+07 2.88052e+07 2.9361e+07 2.99169e+07 3.04729e+07 3.1029e+07 3.15852e+07 3.21415e+07 3.26979e+07 3.32544e+07
          3.3811e+07 3.43676e+07 3.49244e+07 3.54811e+07 3.60379e+07 3.65948e+07 3.71517e+07 3.77086e+07 3.82655e+07 3.88224e+07 3.93793e+07 3.99363e+07
          4.04932e+07 4.10501e+07 4.1607e+07 4.21639e+07 4.27208e+07 4.32777e+07 4.38346e+07 4.43914e+07 4.49482e+07 4.55051e+07 4.60621e+07 4.66205e+07
          4.71875e+07 4.78022e+07 4.85704e+07 4.95e+07 4.95e+07 4.85665e+07 4.78171e+07 4.72198e+07 4.66622e+07 4.61123e+07 4.55638e+07 4.50154e+07
          4.44671e+07 4.39187e+07 4.33702e+07 4.28218e+07 4.22733e+07 4.17248e+07 4.11763e+07 4.06278e+07 4.00792e+07 3.95307e+07 3.89822e+07 3.84337e+07
          3.78852e+07 3.73368e+07 3.67884e+07 3.624e+07 3.56916e+07 3.51433e+07 3.45951e+07 3.40469e+07 3.34988e+07 3.29507e+07 3.24028e+07 3.18549e+07
          3.13071e+07 3.07594e+07 3.02118e+07 2.96643e+07 2.9117e+07 2.85697e+07 2.80218e+07 2.747e+07 2.69136e+07 2.63544e+07 2.57951e+07 2.52396e+07
          2.46932e+07 2.41629e+07 2.36575e+07 2.31871e+07 2.27614e+07 2.23864e+07 2.2058e+07 2.24095e+07 2.28132e+07 2.32685e+07 2.37664e+07 2.42955e+07
          2.48453e+07 2.54077e+07 2.59763e+07 2.65466e+07 2.71149e+07 2.7679e+07 2.8238e+07 2.87936e+07 2.93494e+07 2.99052e+07 3.04612e+07 3.10173e+07
          3.15735e+07 3.21299e+07 3.26863e+07 3.32428e+07 3.37994e+07 3.4356e+07 3.49127e+07 3.54695e+07 3.60263e+07 3.65832e+07 3.714e+07 3.76969e+07
          3.82538e+07 3.88108e+07 3.93677e+07 3.99246e+07 4.04815e+07 4.10385e+07 4.15954e+07 4.21523e+07 4.27092e+07 4.3266e+07 4.38229e+07 4.43797e+07
          4.49366e+07 4.54934e+07 4.60505e+07 4.66089e+07 4.71758e+07 4.77845e+07 4.85498e+07 4.95e+07 4.95e+07 4.8546e+07 4.78045e+07 4.72083e+07
          4.66506e+07 4.61007e+07 4.55522e+07 4.50038e+07 4.44554e+07 4.3907e+07 4.33586e+07 4.28101e+07 4.22616e+07 4.17131e+07 4.11646e+07 4.06161e+07
          4.00676e+07 3.95191e+07 3.89706e+07 3.84221e+07 3.78736e+07 3.73251e+07 3.67767e+07 3.62283e+07 3.568e+07 3.51317e+07 3.45834e+07 3.40353e+07
          3.34871e+07 3.29391e+07 3.23911e+07 3.18433e+07 3.12955e+07 3.07478e+07 3.02002e+07 2.96527e+07 2.91053e+07 2.85581e+07 2.80101e+07 2.74583e+07
          2.69019e+07 2.63426e+07 2.57833e+07 2.52278e+07 2.46814e+07 2.41511e+07 2.36456e+07 2.31752e+07 2.27495e+07 2.23744e+07 2.20446e+07 2.23976e+07
          2.28013e+07 2.32566e+07 2.37545e+07 2.42836e+07 2.48335e+07 2.53959e+07 2.59646e+07 2.65348e+07 2.71032e+07 2.76674e+07 2.82263e+07 2.8782e+07
          2.93377e+07 2.98936e+07 3.04496e+07 3.10057e+07 3.15619e+07 3.21182e+07 3.26746e+07 3.32311e+07 3.37877e+07 3.43444e+07 3.49011e+07 3.54578e+07
          3.60147e+07 3.65715e+07 3.71284e+07 3.76853e+07 3.82422e+07 3.87991e+07 3.9356e+07 3.9913e+07 4.04699e+07 4.10268e+07 4.15837e+07 4.21406e+07
          4.26975e+07 4.32544e+07 4.38112e+07 4.43681e+07 4.49249e+07 4.54818e+07 4.60388e+07 4.65973e+07 4.71642e+07 4.77717e+07 4.85293e+07 4.95e+07
          4.95e+07 4.85262e+07 4.77924e+07 4.71967e+07 4.66389e+07 4.6089e+07 4.55405e+07 4.49921e+07 4.44438e+07 4.38954e+07 4.33469e+07 4.27985e+07
          4.225e+07 4.17015e+07 4.1153e+07 4.06045e+07 4.00559e+07 3.95074e+07 3.89589e+07 3.84104e+07 3.78619e+07 3.73135e+07 3.67651e+07 3.62167e+07