<?xml version="1.0"?>
<VTKFile type="UnstructuredGrid" version="0.1" byte_order="LittleEndian">
  <UnstructuredGrid>
    <Piece NumberOfCells="1000" NumberOfPoints="1111">
      <PointData Scalars="pressure_oil">
        <DataArray type="Float32" Name="pressure_oil" NumberOfComponents="1" format="ascii">
          4.95e+07 4.60535e+07 4.95e+07 4.60406e+07 4.38109e+07 4.37995e+07 4.16809e+07 4.16692e+07 3.97863e+07 3.97747e+07 3.81667e+07 3.81551e+07
          3.68389e+07 3.68273e+07 3.5791e+07 3.57793e+07 3.49919e+07 3.49802e+07 3.44007e+07 3.43891e+07 3.39748e+07 3.39632e+07 3.36749e+07 3.36633e+07
          3.34678e+07 3.34561e+07 3.33271e+07 3.33155e+07 3.3233e+07 3.32213e+07 3.31708e+07 3.31591e+07 3.31301e+07 3.31185e+07 3.31038e+07 3.30922e+07
          3.30869e+07 3.30753e+07 3.30762e+07 3.30645e+07 3.30693e+07 3.30577e+07 3.30651e+07 3.30534e+07 3.30624e+07 3.30507e+07 3.30606e+07 3.3049e+07
          3.30595e+07 3.30479e+07 3.30587e+07 3.30471e+07 3.30581e+07 3.30465e+07 3.30574e+07 3.30458e+07 3.30566e+07 3.3045e+07 3.30555e+07 3.30438e+07
          3.30537e+07 3.30421e+07 3.30509e+07 3.30393e+07 3.30466e+07 3.3035e+07 3.30399e+07 3.30283e+07 3.30296e+07 3.3018e+07 3.30137e+07 3.30021e+07
          3.29896e+07 3.29779e+07 3.29533e+07 3.29417e+07 3.28995e+07 3.28879e+07 3.28207e+07 3.28091e+07 3.27071e+07 3.26954e+07 3.25459e+07 3.25343e+07
          3.23216e+07 3.231e+07 3.2016e+07 3.20044e+07 3.16092e+07 3.15976e+07 3.1082e+07 3.10704e+07 3.04188e+07 3.04072e+07 2.96109e+07 2.95993e+07
          2.86671e+07 2.86553e+07 2.75727e+07 2.75623e+07 2.22017e+07 2.21922e+07 2.75727e+07 2.75623e+07 2.86671e+07 2.86553e+07 2.96109e+07 2.95993e+07
          3.04188e+07 3.04072e+07 3.1082e+07 3.10704e+07 3.16092e+07 3.15976e+07 3.2016e+07 3.20044e+07 3.23216e+07 3.231e+07 3.25459e+07 3.25343e+07
          3.27071e+07 3.26954e+07 3.28207e+07 3.28091e+07 3.28995e+07 3.28879e+07 3.29533e+07 3.29417e+07 3.29896e+07 3.29779e+07 3.30137e+07 3.30021e+07
          3.30296e+07 3.3018e+07 3.30399e+07 3.30283e+07 3.30466e+07 3.3035e+07 3.30509e+07 3.30393e+07 3.30537e+07 3.30421e+07 3.30555e+07 3.30438e+07
          3.30566e+07 3.3045e+07 3.30574e+07 3.30458e+07 3.30581e+07 3.30465e+07 3.30587e+07 3.30471e+07 3.30595e+07 3.30479e+07 3.30606e+07 3.3049e+07
          3.30624e+07 3.30507e+07 3.30651e+07 3.30534e+07 3.30693e+07 3.30577e+07 3.30762e+07 3.30645e+07 3.30869e+07 3.30753e+07 3.31038e+07 3.30922e+07
          3.31301e+07 3.31185e+07 3.31708e+07 3.31591e+07 3.3233e+07 3.32213e+07 3.33271e+07 3.33155e+07 3.34678e+07 3.34561e+07 3.36749e+07 3.36633e+07
          3.39748e+07 3.39632e+07 3.44007e+07 3.43891e+07 3.49919e+07 3.49802e+07 3.5791e+07 3.57793e+07 3.68389e+07 3.68273e+07 3.81667e+07 3.81551e+07
          3.97863e+07 3.97747e+07 4.16809e+07 4.16692e+07 4.38109e+07 4.37995e+07 4.60535e+07 4.60406e+07 4.95e+07 4.95e+07 4.95e+07 4.60293e+07
          4.37879e+07 4.16575e+07 3.9763e+07 3.81434e+07 3.68156e+07 3.57677e+07 3.49686e+07 3.43774e+07 3.39516e+07 3.36516e+07 3.34445e+07 3.33038e+07
          3.32097e+07 3.31475e+07 3.31068e+07 3.30805e+07 3.30636e+07 3.30529e+07 3.30461e+07 3.30418e+07 3.30391e+07 3.30374e+07 3.30363e+07 3.30355e+07
          3.30348e+07 3.30342e+07 3.30334e+07 3.30322e+07 3.30304e+07 3.30277e+07 3.30234e+07 3.30167e+07 3.30063e+07 3.29904e+07 3.29663e+07 3.29301e+07
          3.28762e+07 3.27974e+07 3.26838e+07 3.25226e+07 3.22984e+07 3.19927e+07 3.1586e+07 3.10588e+07 3.03956e+07 2.95878e+07 2.86432e+07 2.75538e+07
          2.21739e+07 2.75538e+07 2.86432e+07 2.95878e+07 3.03956e+07 3.10588e+07 3.1586e+07 3.19927e+07 3.22984e+07 3.25226e+07 3.26838e+07 3.27974e+07
          3.28762e+07 3.29301e+07 3.29663e+07 3.29904e+07 3.30063e+07 3.30167e+07 3.30234e+07 3.30277e+07 3.30304e+07 3.30322e+07 3.30334e+07 3.30342e+07
          3.30348e+07 3.30355e+07 3.30363e+07 3.30374e+07 3.30391e+07 3.30418e+07 3.30461e+07 3.30529e+07 3.30636e+07 3.30805e+07 3.31068e+07 3.31475e+07
          3.32097e+07 3.33038e+07 3.34445e+07 3.36516e+07 3.39516e+07 3.43774e+07 3.49686e+07 3.57677e+07 3.68156e+07 3.81434e+07 3.9763e+07 4.16575e+07
          4.37879e+07 4.60293e+07 4.95e+07 4.95e+07 4.60194e+07 4.37761e+07 4.16459e+07 3.97514e+07 3.81318e+07 3.6804e+07 3.57561e+07 3.49569e+07
          3.43658e+07 3.39399e+07 3.364e+07 3.34329e+07 3.32922e+07 3.31981e+07 3.31359e+07 3.30952e+07 3.30689e+07 3.3052e+07 3.30413e+07 3.30344e+07
          3.30302e+07 3.30275e+07 3.30257e+07 3.30246e+07 3.30238e+07 3.30232e+07 3.30225e+07 3.30217e+07 3.30206e+07 3.30188e+07 3.3016e+07 3.30117e+07
          3.3005e+07 3.29947e+07 3.29788e+07 3.29547e+07 3.29184e+07 3.28646e+07 3.27858e+07 3.26722e+07 3.2511e+07 3.22867e+07 3.19811e+07 3.15743e+07
          3.10472e+07 3.03839e+07 2.95762e+07 2.86308e+07 2.7547e+07 2.2146e+07 2.7547e+07 2.86308e+07 2.95762e+07 3.03839e+07 3.10472e+07 3.15743e+07
          3.19811e+07 3.22867e+07 3.2511e+07 3.26722e+07 3.27858e+07 3.28646e+07 3.29184e+07 3.29547e+07 3.29788e+07 3.29947e+07 3.3005e+07 3.30117e+07
          3.3016e+07 3.30188e+07 3.30206e+07 3.30217e+07 3.30225e+07 3.30232e+07 3.30238e+07 3.30246e+07 3.30257e+07 3.30275e+07 3.30302e+07 3.30344e+07
          3.30413e+07 3.3052e+07 3.30689e+07 3.30952e+07 3.31359e+07 3.31981e+07 3.32922e+07 3.34329e+07 3.364e+07 3.39399e+07 3.43658e+07 3.49569e+07
          3.57561e+07 3.6804e+07 3.81318e+07 3.97514e+07 4.16459e+07 4.37761e+07 4.60194e+07 4.95e+07 4.95e+07 4.60111e+07 4.37642e+07 4.16342e+07
          3.97397e+07 3.81201e+07 3.67924e+07 3.57444e+07 3.49453e+07 3.43542e+07 3.39283e+07 3.36284e+07 3.34212e+07 3.32806e+07 3.31864e+07 3.31242e+07
          3.30836e+07 3.30573e+07 3.30404e+07 3.30296e+07 3.30228e+07 3.30185e+07 3.30158e+07 3.30141e+07 3.3013e+07 3.30122e+07 3.30116e+07 3.30109e+07
          3.30101e+07 3.30089e+07 3.30072e+07 3.30044e+07 3.30001e+07 3.29934e+07 3.29831e+07 3.29672e+07 3.2943e+07 3.29068e+07 3.2853e+07 3.27742e+07
          3.26605e+07 3.24994e+07 3.22751e+07 3.19695e+07 3.15627e+07 3.10355e+07 3.03723e+07 2.95648e+07 2.86182e+07 2.7542e+07 2.21081e+07 2.7542e+07
          2.86182e+07 2.95648e+07 3.03723e+07 3.10355e+07 3.15627e+07 3.19695e+07 3.22751e+07 3.24994e+07 3.26605e+07 3.27742e+07 3.2853e+07 3.29068e+07
          3.2943e+07 3.29672e+07 3.29831e+07 3.29934e+07 3.30001e+07 3.30044e+07 3.30072e+07 3.30089e+07 3.30101e+07 3.30109e+07 3.30116e+07 3.30122e+07
          3.3013e+07 3.30141e+07 3.30158e+07 3.30185e+07 3.30228e+07 3.30296e+07 3.30404e+07 3.30573e+07 3.30836e+07 3.31242e+07 3.31864e+07 3.32806e+07
          3.34212e+07 3.36284e+07 3.39283e+07 3.43542e+07 3.49453e+07 3.57444e+07 3.67924e+07 3.81201e+07 3.97397e+07 4.16342e+07 4.37642e+07 4.60111e+07
          4.95e+07 4.93292e+07 4.60336e+07 4.3747e+07 4.16235e+07 3.9728e+07 3.81085e+07 3.67807e+07 3.57328e+07 3.49337e+07 3.43425e+07 3.39167e+07
          3.36167e+07 3.34096e+07 3.3269e+07 3.31748e+07 3.31126e+07 3.30719e+07 3.30456e+07 3.30287e+07 3.3018e+07 3.30112e+07 3.30069e+07 3.30042e+07
          3.30025e+07 3.30014e+07 3.30006e+07 3.29999e+07 3.29993e+07 3.29985e+07 3.29973e+07 3.29955e+07 3.29928e+07 3.29885e+07 3.29818e+07 3.29714e+07
          3.29555e+07 3.29314e+07 3.28952e+07 3.28413e+07 3.27626e+07 3.26489e+07 3.24877e+07 3.22635e+07 3.19578e+07 3.15511e+07 3.10239e+07 3.03606e+07
          2.95534e+07 2.86053e+07 2.75387e+07 2.206e+07 2.75387e+07 2.86053e+07 2.95534e+07 3.03606e+07 3.10239e+07 3.15511e+07 3.19578e+07 3.22635e+07
          3.24877e+07 3.26489e+07 3.27626e+07 3.28413e+07 3.28952e+07 3.29314e+07 3.29555e+07 3.29714e+07 3.29818e+07 3.29885e+07 3.29928e+07 3.29955e+07
          3.29973e+07 3.29985e+07 3.29993e+07 3.29999e+07 3.30006e+07 3.30014e+07 3.30025e+07 3.30042e+07 3.30069e+07 3.30112e+07 3.3018e+07 3.30287e+07
          3.30456e+07 3.30719e+07 3.31126e+07 3.31748e+07 3.3269e+07 3.34096e+07 3.36167e+07 3.39167e+07 3.43425e+07 3.49337e+07 3.57328e+07 3.67807e+07
          3.81085e+07 3.9728e+07 4.16235e+07 4.3747e+07 4.60336e+07 4.93292e+07 4.92655e+07 4.60367e+07 4.37332e+07 4.16121e+07 3.97163e+07 3.80969e+07
          3.67691e+07 3.57211e+07 3.4922e+07 3.43309e+07 3.3905e+07 3.36051e+07 3.3398e+07 3.32573e+07 3.31632e+07 3.3101e+07 3.30603e+07 3.3034e+07
          3.30171e+07 3.30064e+07 3.29996e+07 3.29953e+07 3.29926e+07 3.29908e+07 3.29897e+07 3.29889e+07 3.29883e+07 3.29876e+07 3.29868e+07 3.29857e+07
          3.29839e+07 3.29811e+07 3.29768e+07 3.29702e+07 3.29598e+07 3.29439e+07 3.29198e+07 3.28835e+07 3.28297e+07 3.27509e+07 3.26373e+07 3.24761e+07
          3.22518e+07 3.19462e+07 3.15395e+07 3.10123e+07 3.03489e+07 2.9542e+07 2.8592e+07 2.75375e+07 2.2e+07 2.75375e+07 2.8592e+07 2.9542e+07
          3.03489e+07 3.10123e+07 3.15395e+07 3.19462e+07 3.22518e+07 3.24761e+07 3.26373e+07 3.27509e+07 3.28297e+07 3.28835e+07 3.29198e+07 3.29439e+07
          3.29598e+07 3.29702e+07 3.29768e+07 3.29811e+07 3.29839e+07 3.29857e+07 3.29868e+07 3.29876e+07 3.29883e+07 3.29889e+07 3.29897e+07 3.29908e+07
          3.29926e+07 3.29953e+07 3.29996e+07 3.30064e+07 3.30171e+07 3.3034e+07 3.30603e+07 3.3101e+07 3.31632e+07 3.32573e+07 3.3398e+07 3.36051e+07
          3.3905e+07 3.43309e+07 3.4922e+07 3.57211e+07 3.67691e+07 3.80969e+07 3.97163e+07 4.16121e+07 4.37332e+07 4.60367e+07 4.92655e+07 4.92176e+07
          4.60356e+07 4.372e+07 4.16007e+07 3.97046e+07 3.80853e+07 3.67574e+07 3.57095e+07 3.49104e+07 3.43193e+07 3.38934e+07 3.35935e+07 3.33863e+07
          3.32457e+07 3.31516e+07 3.30893e+07 3.30487e+07 3.30224e+07 3.30055e+07 3.29947e+07 3.29879e+07 3.29836e+07 3.29809e+07 3.29792e+07 3.29781e+07
          3.29773e+07 3.29767e+07 3.2976e+07 3.29752e+07 3.2974e+07 3.29723e+07 3.29695e+07 3.29652e+07 3.29585e+07 3.29482e+07 3.29323e+07 3.29082e+07
          3.28719e+07 3.28181e+07 3.27393e+07 3.26256e+07 3.24645e+07 3.22402e+07 3.19346e+07 3.15278e+07 3.10007e+07 3.03373e+07 2.95303e+07 2.85804e+07
          2.7526e+07 2.2e+07 2.7526e+07 2.85804e+07 2.95303e+07 3.03373e+07 3.10007e+07 3.15278e+07 3.19346e+07 3.22402e+07 3.24645e+07 3.26256e+07
          3.27393e+07 3.28181e+07 3.28719e+07 3.29082e+07 3.29323e+07 3.29482e+07 3.29585e+07 3.29652e+07 3.29695e+07 3.29723e+07 3.2974e+07 3.29752e+07
          3.2976e+07 3.29767e+07 3.29773e+07 3.29781e+07 3.29792e+07 3.29809e+07 3.29836e+07 3.29879e+07 3.29947e+07 3.30055e+07 3.30224e+07 3.30487e+07
          3.30893e+07 3.31516e+07 3.32457e+07 3.33863e+07 3.35935e+07 3.38934e+07 3.43193e+07 3.49104e+07 3.57095e+07 3.67574e+07 3.80853e+07 3.97046e+07
          4.16007e+07 4.372e+07 4.60356e+07 4.92176e+07 4.91802e+07 4.60314e+07 4.37073e+07 4.15892e+07 3.96929e+07 3.80736e+07 3.67458e+07 3.56979e+07
          3.48988e+07 3.43076e+07 3.38818e+07 3.35818e+07 3.33747e+07 3.32341e+07 3.31399e+07 3.30777e+07 3.3037e+07 3.30107e+07 3.29938e+07 3.29831e+07
          3.29763e+07 3.2972e+07 3.29693e+07 3.29676e+07 3.29665e+07 3.29657e+07 3.2965e+07 3.29644e+07 3.29636e+07 3.29624e+07 3.29606e+07 3.29579e+07
          3.29536e+07 3.29469e+07 3.29365e+07 3.29206e+07 3.28965e+07 3.28603e+07 3.28065e+07 3.27277e+07 3.2614e+07 3.24528e+07 3.22286e+07 3.19229e+07
          3.15162e+07 3.0989e+07 3.03257e+07 2.95187e+07 2.85689e+07 2.75145e+07 2.2e+07 2.75145e+07 2.85689e+07 2.95187e+07 3.03257e+07 3.0989e+07
          3.15162e+07 3.19229e+07 3.22286e+07 3.24528e+07 3.2614e+07 3.27277e+07 3.28065e+07 3.28603e+07 3.28965e+07 3.29206e+07 3.29365e+07 3.29469e+07
          3.29536e+07 3.29579e+07 3.29606e+07 3.29624e+07 3.29636e+07 3.29644e+07 3.2965e+07 3.29657e+07 3.29665e+07 3.29676e+07 3.29693e+07 3.2972e+07
          3.29763e+07 3.29831e+07 3.29938e+07 3.30107e+07 3.3037e+07 3.30777e+07 3.31399e+07 3.32341e+07 3.33747e+07 3.35818e+07 3.38818e+07 3.43076e+07
          3.48988e+07 3.56979e+07 3.67458e+07 3.80736e+07 3.96929e+07 4.15892e+07 4.37073e+07 4.60314e+07 4.91802e+07 4.91531e+07 4.60242e+07 4.3695e+07
          4.15777e+07 3.96813e+07 3.8062e+07 3.67342e+07 3.56862e+07 3.48871e+07 3.4296e+07 3.38701e+07 3.35702e+07 3.33631e+07 3.32224e+07 3.31283e+07
          3.30661e+07 3.30254e+07 3.29991e+07 3.29822e+07 3.29715e+07 3.29647e+07 3.29604e+07 3.29577e+07 3.2956e+07 3.29548e+07 3.2954e+07 3.29534e+07
          3.29528e+07 3.29519e+07 3.29508e+07 3.2949e+07 3.29462e+07 3.2942e+07 3.29353e+07 3.29249e+07 3.2909e+07 3.28849e+07 3.28486e+07 3.27948e+07
          3.2716e+07 3.26024e+07 3.24412e+07 3.22169e+07 3.19113e+07 3.15046e+07 3.09774e+07 3.03141e+07 2.95071e+07 2.85573e+07 2.7503e+07 2.2e+07
          2.7503e+07 2.85573e+07 2.95071e+07 3.03141e+07 3.09774e+07 3.15046e+07 3.19113e+07 3.22169e+07 3.24412e+07 3.26024e+07 3.2716e+07 3.27948e+07
          3.28486e+07 3.28849e+07 3.2909e+07 3.29249e+07 3.29353e+07 3.2942e+07 3.29462e+07 3.2949e+07 3.29508e+07 3.29519e+07 3.29528e+07 3.29534e+07
          3.2954e+07 3.29548e+07 3.2956e+07 3.29577e+07 3.29604e+07 3.29647e+07 3.29715e+07 3.29822e+07 3.29991e+07 3.30254e+07 3.30661e+07 3.31283e+07
          3.32224e+07 3.33631e+07 3.35702e+07 3.38701e+07 3.4296e+07 3.48871e+07 3.56862e+07 3.67342e+07 3.8062e+07 3.96813e+07 4.15777e+07 4.3695e+07
          4.60242e+07 4.91531e+07 4.91363e+07 4.6014e+07 4.36832e+07 4.1566e+07 3.96696e+07 3.80503e+07 3.67225e+07 3.56746e+07 3.48755e+07 3.42844e+07
          3.38585e+07 3.35586e+07 3.33514e+07 3.32108e+07 3.31167e+07 3.30544e+07 3.30138e+07 3.29875e+07 3.29706e+07 3.29598e+07 3.2953e+07 3.29487e+07
          3.2946e+07 3.29443e+07 3.29432e+07 3.29424e+07 3.29418e+07 3.29411e+07 3.29403e+07 3.29391e+07 3.29374e+07 3.29346e+07 3.29303e+07 3.29236e+07
          3.29133e+07 3.28974e+07 3.28733e+07 3.2837e+07 3.27832e+07 3.27044e+07 3.25908e+07 3.24296e+07 3.22053e+07 3.18997e+07 3.14929e+07 3.09658e+07
          3.03024e+07 2.94954e+07 2.85456e+07 2.74914e+07 2.2e+07 2.74914e+07 2.85456e+07 2.94954e+07 3.03024e+07 3.09658e+07 3.14929e+07 3.18997e+07
          3.22053e+07 3.24296e+07 3.25908e+07 3.27044e+07 3.27832e+07 3.2837e+07 3.28733e+07 3.28974e+07 3.29133e+07 3.29236e+07 3.29303e+07 3.29346e+07
          3.29374e+07 3.29391e+07 3.29403e+07 3.29411e+07 3.29418e+07 3.29424e+07 3.29432e+07 3.29443e+07 3.2946e+07 3.29487e+07 3.2953e+07 3.29598e+07
          3.29706e+07 3.29875e+07 3.30138e+07 3.30544e+07 3.31167e+07 3.32108e+07 3.33514e+07 3.35586e+07 3.38585e+07 3.42844e+07 3.48755e+07 3.56746e+07
          3.67225e+07 3.80503e+07 3.96696e+07 4.1566e+07 4.36832e+07 4.6014e+07 4.91363e+07
        </DataArray>
        <DataArray type="Float32" Name="pressure_water" NumberOfComponents="1" format="ascii">
          4.95e+07 4.60535e+07 4.95e+07 4.60406e+07 4.38109e+07 4.37995e+07 4.16809e+07 4.16692e+07 3.97863e+07 3.97747e+07 3.81667e+07 3.81551e+07
          3.68389e+07 3.68273e+07 3.5791e+07 3.57793e+07 3.49919e+07 3.49802e+07 3.44007e+07 3.43891e+07 3.39748e+07 3.39632e+07 3.36749e+07 3.36633e+07
          3.34678e+07 3.34561e+07 3.33271e+07 3.33155e+07 3.3233e+07 3.32213e+07 3.31708e+07 3.31591e+07 3.31301e+07 3.31185e+07 3.31038e+07 3.30922e+07
          3.30869e+07 3.30753e+07 3.30762e+07 3.30645e+07 3.30693e+07 3.30577e+07 3.30651e+07 3.30534e+07 3.30624e+07 3.30507e+07 3.30606e+07 3.3049e+07
          3.30595e+07 3.30479e+07 3.30587e+07 3.30471e+07 3.30581e+07 3.30465e+07 3.30574e+07 3.30458e+07 3.30566e+07 3.3045e+07 3.30555e+07 3.30438e+07
          3.30537e+07 3.30421e+07 3.30509e+07 3.30393e+07 3.30466e+07 3.3035e+07 3.30399e+07 3.30283e+07 3.30296e+07 3.3018e+07 3.30137e+07 3.30021e+07
          3.29896e+07 3.29779e+07 3.29533e+07 3.29417e+07 3.28995e+07 3.28879e+07 3.28207e+07 3.28091e+07 3.27071e+07 3.26954e+07 3.25459e+07 3.25343e+07
          3.23216e+07 3.231e+07 3.2016e+07 3.20044e+07 3.16092e+07 3.15976e+07 3.1082e+07 3.10704e+07 3.04188e+07 3.04072e+07 2.96109e+07 2.95993e+07
          2.86671e+07 2.86553e+07 2.75727e+07 2.75623e+07 2.22017e+07 2.21922e+07 2.75727e+07 2.75623e+07 2.86671e+07 2.86553e+07 2.96109e+07 2.95993e+07
          3.04188e+07 3.04072e+07 3.1082e+07 3.10704e+07 3.16092e+07 3.15976e+07 3.2016e+07 3.20044e+07 3.23216e+07 3.231e+07 3.25459e+07 3.25343e+07
          3.27071e+07 3.26954e+07 3.28207e+07 3.28091e+07 3.28995e+07 3.28879e+07 3.29533e+07 3.29417e+07 3.29896e+07 3.29779e+07 3.30137e+07 3.30021e+07
          3.30296e+07 3.3018e+07 3.30399e+07 3.30283e+07 3.30466e+07 3.3035e+07 3.30509e+07 3.30393e+07 3.30537e+07 3.30421e+07 3.30555e+07 3.30438e+07
          3.30566e+07 3.3045e+07 3.30574e+07 3.30458e+07 3.30581e+07 3.30465e+07 3.30587e+07 3.30471e+07 3.30595e+07 3.30479e+07 3.30606e+07 3.3049e+07
          3.30624e+07 3.30507e+07 3.30651e+07 3.30534e+07 3.30693e+07 3.30577e+07 3.30762e+07 3.30645e+07 3.30869e+07 3.30753e+07 3.31038e+07 3.30922e+07
          3.31301e+07 3.31185e+07 3.31708e+07 3.31591e+07 3.3233e+07 3.32213e+07 3.33271e+07 3.33155e+07 3.34678e+07 3.34561e+07 3.36749e+07 3.36633e+07
          3.39748e+07 3.39632e+07 3.44007e+07 3.43891e+07 3.49919e+07 3.49802e+07 3.5791e+07 3.57793e+07 3.68389e+07 3.68273e+07 3.81667e+07 3.81551e+07
          3.97863e+07 3.97747e+07 4.16809e+07 4.16692e+07 4.38109e+07 4.37995e+07 4.60535e+07 4.60406e+07 4.95e+07 4.95e+07 4.95e+07 4.60293e+07
          4.37879e+07 4.16575e+07 3.9763e+07 3.81434e+07 3.68156e+07 3.57677e+07 3.49686e+07 3.43774e+07 3.39516e+07 3.36516e+07 3.34445e+07 3.33038e+07
          3.32097e+07 3.31475e+07 3.31068e+07 3.30805e+07 3.30636e+07 3.30529e+07 3.30461e+07 3.30418e+07 3.30391e+07 3.30374e+07 3.30363e+07 3.30355e+07
          3.30348e+07 3.30342e+07 3.30334e+07 3.30322e+07 3.30304e+07 3.30277e+07 3.30234e+07 3.30167e+07 3.30063e+07 3.29904e+07 3.29663e+07 3.29301e+07
          3.28762e+07 3.27974e+07 3.26838e+07 3.25226e+07 3.22984e+07 3.19927e+07 3.1586e+07 3.10588e+07 3.03956e+07 2.95878e+07 2.86432e+07 2.75538e+07
          2.21739e+07 2.75538e+07 2.86432e+07 2.95878e+07 3.03956e+07 3.10588e+07 3.1586e+07 3.19927e+07 3.22984e+07 3.25226e+07 3.26838e+07 3.27974e+07
          3.28762e+07 3.29301e+07 3.29663e+07 3.29904e+07 3.30063e+07 3.30167e+07 3.30234e+07 3.30277e+07 3.30304e+07 3.30322e+07 3.30334e+07 3.30342e+07
          3.30348e+07 3.30355e+07 3.30363e+07 3.30374e+07 3.30391e+07 3.30418e+07 3.30461e+07 3.30529e+07 3.30636e+07 3.30805e+07 3.31068e+07 3.31475e+07
          3.32097e+07 3.33038e+07 3.34445e+07 3.36516e+07 3.39516e+07 3.43774e+07 3.49686e+07 3.57677e+07 3.68156e+07 3.81434e+07 3.9763e+07 4.16575e+07
          4.37879e+07 4.60293e+07 4.95e+07 4.95e+07 4.60194e+07 4.37761e+07 4.16459e+07 3.97514e+07 3.81318e+07 3.6804e+07 3.57561e+07 3.49569e+07
          3.43658e+07 3.39399e+07 3.364e+07 3.34329e+07 3.32922e+07 3.31981e+07 3.31359e+07 3.30952e+07 3.30689e+07 3.3052e+07 3.30413e+07 3.30344e+07
          3.30302e+07 3.30275e+07 3.30257e+07 3.30246e+07 3.30238e+07 3.30232e+07 3.30225e+07 3.30217e+07 3.30206e+07 3.30188e+07 3.3016e+07 3.30117e+07
          3.3005e+07 3.29947e+07 3.29788e+07 3.29547e+07 3.29184e+07 3.28646e+07 3.27858e+07 3.26722e+07 3.2511e+07 3.22867e+07 3.19811e+07 3.15743e+07
          3.10472e+07 3.03839e+07 2.95762e+07 2.86308e+07 2.7547e+07 2.2146e+07 2.7547e+07 2.86308e+07 2.95762e+07 3.03839e+07 3.10472e+07 3.15743e+07
          3.19811e+07 3.22867e+07 3.2511e+07 3.26722e+07 3.27858e+07 3.28646e+07 3.29184e+07 3.29547e+07 3.29788e+07 3.29947e+07 3.3005e+07 3.30117e+07
          3.3016e+07 3.30188e+07 3.30206e+07 3.30217e+07 3.30225e+07 3.30232e+07 3.30238e+07 3.30246e+07 3.30257e+07 3.30275e+07 3.30302e+07 3.30344e+07
          3.30413e+07 3.3052e+07 3.30689e+07 3.30952e+07 3.31359e+07 3.31981e+07 3.32922e+07 3.34329e+07 3.364e+07 3.39399e+07 3.43658e+07 3.49569e+07
          3.57561e+07 3.6804e+07 3.81318e+07 3.97514e+07 4.16459e+07 4.37761e+07 4.60194e+07 4.95e+07 4.95e+07 4.60111e+07 4.37642e+07 4.16342e+07
          3.97397e+07 3.81201e+07 3.67924e+07 3.57444e+07 3.49453e+07 3.43542e+07 3.39283e+07 3.36284e+07 3.34212e+07 3.32806e+07 3.31864e+07 3.31242e+07
          3.30836e+07 3.30573e+07 3.30404e+07 3.30296e+07 3.30228e+07 3.30185e+07 3.30158e+07 3.30141e+07 3.3013e+07 3.30122e+07 3.30116e+07 3.30109e+07
          3.30101e+07 3.30089e+07 3.30072e+07 3.30044e+07 3.30001e+07 3.29934e+07 3.29831e+07 3.29672e+07 3.2943e+07 3.29068e+07 3.2853e+07 3.27742e+07
          3.26605e+07 3.24994e+07 3.22751e+07 3.19695e+07 3.15627e+07 3.10355e+07 3.03723e+07 2.95648e+07 2.86182e+07 2.7542e+07 2.21081e+07 2.7542e+07
          2.86182e+07 2.95648e+07 3.03723e+07 3.10355e+07 3.15627e+07 3.19695e+07 3.22751e+07 3.24994e+07 3.26605e+07 3.27742e+07 3.2853e+07 3.29068e+07
          3.2943e+07 3.29672e+07 3.29831e+07 3.29934e+07 3.30001e+07 3.30044e+07 3.30072e+07 3.30089e+07 3.30101e+07 3.30109e+07 3.30116e+07 3.30122e+07
          3.3013e+07 3.30141e+07 3.30158e+07 3.30185e+07 3.30228e+07 3.30296e+07 3.30404e+07 3.30573e+07 3.30836e+07 3.31242e+07 3.31864e+07 3.32806e+07
          3.34212e+07 3.36284e+07 3.39283e+07 3.43542e+07 3.49453e+07 3.57444e+07 3.67924e+07 3.81201e+07 3.97397e+07 4.16342e+07 4.37642e+07 4.60111e+07
          4.95e+07 4.93292e+07 4.60336e+07 4.3747e+07 4.16235e+07 3.9728e+07 3.81085e+07 3.67807e+07 3.57328e+07 3.49337e+07 3.43425e+07 3.39167e+07
          3.36167e+07 3.34096e+07 3.3269e+07 3.31748e+07 3.31126e+07 3.30719e+07 3.30456e+07 3.30287e+07 3.3018e+07 3.30112e+07 3.30069e+07 3.30042e+07
          3.30025e+07 3.30014e+07 3.30006e+07 3.29999e+07 3.29993e+07 3.29985e+07 3.29973e+07 3.29955e+07 3.29928e+07 3.29885e+07 3.29818e+07 3.29714e+07
          3.29555e+07 3.29314e+07 3.28952e+07 3.28413e+07 3.27626e+07 3.26489e+07 3.24877e+07 3.22635e+07 3.19578e+07 3.15511e+07 3.10239e+07 3.03606e+07
          2.95534e+07 2.86053e+07 2.75387e+07 2.206e+07 2.75387e+07 2.86053e+07 2.95534e+07 3.03606e+07 3.10239e+07 3.15511e+07 3.19578e+07 3.22635e+07
          3.24877e+07 3.26489e+07 3.27626e+07 3.28413e+07 3.28952e+07 3.29314e+07 3.29555e+07 3.29714e+07 3.29818e+07 3.29885e+07 3.29928e+07 3.29955e+07
          3.29973e+07 3.29985e+07 3.29993e+07 3.29999e+07 3.30006e+07 3.30014e+07 3.30025e+07 3.30042e+07 3.30069e+07 3.30112e+07 3.3018e+07 3.30287e+07
          3.30456e+07 3.30719e+07 3.31126e+07 3.31748e+07 3.3269e+07 3.34096e+07 3.36167e+07 3.39167e+07 3.43425e+07 3.49337e+07 3.57328e+07 3.67807e+07
          3.81085e+07 3.9728e+07 4.16235e+07 4.3747e+07 4.60336e+07 4.93292e+07 4.92655e+07 4.60367e+07 4.37332e+07 4.16121e+07 3.97163e+07 3.80969e+07
          3.67691e+07 3.57211e+07 3.4922e+07 3.43309e+07 3.3905e+07 3.36051e+07 3.3398e+07 3.32573e+07 3.31632e+07 3.3101e+07 3.30603e+07 3.3034e+07
          3.30171e+07 3.30064e+07 3.29996e+07 3.29953e+07 3.29926e+07 3.29908e+07 3.29897e+07 3.29889e+07 3.29883e+07 3.29876e+07 3.29868e+07 3.29857e+07
          3.29839e+07 3.29811e+07 3.29768e+07 3.29702e+07 3.29598e+07 3.29439e+07 3.29198e+07 3.28835e+07 3.28297e+07 3.27509e+07 3.26373e+07 3.24761e+07
          3.22518e+07 3.19462e+07 3.15395e+07 3.10123e+07 3.03489e+07 2.9542e+07 2.8592e+07 2.75375e+07 2.2e+07 2.75375e+07 2.8592e+07 2.9542e+07
          3.03489e+07 3.10123e+07 3.15395e+07 3.19462e+07 3.22518e+07 3.24761e+07 3.26373e+07 3.27509e+07 3.28297e+07 3.28835e+07 3.29198e+07 3.29439e+07
          3.29598e+07 3.29702e+07 3.29768e+07 3.29811e+07 3.29839e+07 3.29857e+07 3.29868e+07 3.29876e+07 3.29883e+07 3.29889e+07 3.29897e+07 3.29908e+07
          3.29926e+07 3.29953e+07 3.29996e+07 3.30064e+07 3.30171e+07 3.3034e+07 3.30603e+07 3.3101e+07 3.31632e+07 3.32573e+07 3.3398e+07 3.36051e+07
          3.3905e+07 3.43309e+07 3.4922e+07 3.57211e+07 3.67691e+07 3.80969e+07 3.97163e+07 4.16121e+07 4.37332e+07 4.60367e+07 4.92655e+07 4.92176e+07
          4.60356e+07 4.372e+07 4.16007e+07 3.97046e+07 3.80853e+07 3.67574e+07 3.57095e+07 3.49104e+07 3.43193e+07 3.38934e+07 3.35935e+07 3.33863e+07
          3.32457e+07 3.31516e+07 3.30893e+07 3.30487e+07 3.30224e+07 3.30055e+07 3.29947e+07 3.29879e+07 3.29836e+07 3.29809e+07 3.29792e+07 3.29781e+07
          3.29773e+07 3.29767e+07 3.2976e+07 3.29752e+07 3.2974e+07 3.29723e+07 3.29695e+07 3.29652e+07 3.29585e+07 3.29482e+07 3.29323e+07 3.29082e+07
          3.28719e+07 3.28181e+07 3.27393e+07 3.26256e+07 3.24645e+07 3.22402e+07 3.19346e+07 3.15278e+07 3.10007e+07 3.03373e+07 2.95303e+07 2.85804e+07
          2.7526e+07 2.2e+07 2.7526e+07 2.85804e+07 2.95303e+07 3.03373e+07 3.10007e+07 3.15278e+07 3.19346e+07 3.22402e+07 3.24645e+07 3.26256e+07
          3.27393e+07 3.28181e+07 3.28719e+07 3.29082e+07 3.29323e+07 3.29482e+07 3.29585e+07 3.29652e+07 3.29695e+07 3.29723e+07 3.2974e+07 3.29752e+07
          3.2976e+07 3.29767e+07 3.29773e+07 3.29781e+07 3.29792e+07 3.29809e+07 3.29836e+07 3.29879e+07 3.29947e+07 3.30055e+07 3.30224e+07 3.30487e+07
          3.30893e+07 3.31516e+07 3.32457e+07 3.33863e+07 3.35935e+07 3.38934e+07 3.43193e+07 3.49104e+07 3.57095e+07 3.67574e+07 3.80853e+07 3.97046e+07
          4.16007e+07 4.372e+07 4.60356e+07 4.92176e+07 4.91802e+07 4.60314e+07 4.37073e+07 4.15892e+07 3.96929e+07 3.80736e+07 3.67458e+07 3.56979e+07
          3.48988e+07 3.43076e+07 3.38818e+07 3.35818e+07 3.33747e+07 3.32341e+07 3.31399e+07 3.30777e+07 3.3037e+07 3.30107e+07 3.29938e+07 3.29831e+07
          3.29763e+07 3.2972e+07 3.29693e+07 3.29676e+07 3.29665e+07 3.29657e+07 3.2965e+07 3.29644e+07 3.29636e+07 3.29624e+07 3.29606e+07 3.29579e+07
          3.29536e+07 3.29469e+07 3.29365e+07 3.29206e+07 3.28965e+07 3.28603e+07 3.28065e+07 3.27277e+07 3.2614e+07 3.24528e+07 3.22286e+07 3.19229e+07
          3.15162e+07 3.0989e+07 3.03257e+07 2.95187e+07 2.85689e+07 2.75145e+07 2.2e+07 2.75145e+07 2.85689e+07 2.95187e+07 3.03257e+07 3.0989e+07
          3.15162e+07 3.19229e+07 3.22286e+07 3.24528e+07 3.2614e+07 3.27277e+07 3.28065e+07 3.28603e+07 3.28965e+07 3.29206e+07 3.29365e+07 3.29469e+07
          3.29536e+07 3.29579e+07 3.29606e+07 3.29624e+07 3.29636e+07 3.29644e+07 3.2965e+07 3.29657e+07 3.29665e+07 3.29676e+07 3.29693e+07 3.2972e+07
          3.29763e+07 3.29831e+07 3.29938e+07 3.30107e+07 3.3037e+07 3.30777e+07 3.31399e+07 3.32341e+07 3.33747e+07 3.35818e+07 3.38818e+07 3.43076e+07
          3.48988e+07 3.56979e+07 3.67458e+07 3.80736e+07 3.96929e+07 4.15892e+07 4.37073e+07 4.60314e+07 4.91802e+07 4.91531e+07 4.60242e+07 4.3695e+07
          4.15777e+07 3.96813e+07 3.8062e+07 3.67342e+07 3.56862e+07 3.48871e+07 3.4296e+07 3.38701e+07 3.35702e+07 3.33631e+07 3.32224e+07 3.31283e+07
          3.30661e+07 3.30254e+07 3.29991e+07 3.29822e+07 3.29715e+07 3.29647e+07 3.29604e+07 3.29577e+07 3.2956e+07 3.29548e+07 3.2954e+07 3.29534e+07
          3.29528e+07 3.29519e+07 3.29508e+07 3.2949e+07 3.29462e+07 3.2942e+07 3.29353e+07 3.29249e+07 3.2909e+07 3.28849e+07 3.28486e+07 3.27948e+07
          3.2716e+07 3.26024e+07 3.24412e+07 3.22169e+07 3.19113e+07 3.15046e+07 3.09774e+07 3.03141e+07 2.95071e+07 2.85573e+07 2.7503e+07 2.2e+07
          2.7503e+07 2.85573e+07 2.95071e+07 3.03141e+07 3.09774e+07 3.15046e+07 3.19113e+07 3.22169e+07 3.24412e+07 3.26024e+07 3.2716e+07 3.27948e+07
          3.28486e+07 3.28849e+07 3.2909e+07 3.29249e+07 3.29353e+07 3.2942e+07 3.29462e+07 3.2949e+07 3.29508e+07 3.29519e+07 3.29528e+07 3.29534e+07
          3.2954e+07 3.29548e+07 3.2956e+07 3.29577e+07 3.29604e+07 3.29647e+07 3.29715e+07 3.29822e+07 3.29991e+07 3.30254e+07 3.30661e+07 3.31283e+07
          3.32224e+07 3.33631e+07 3.35702e+07 3.38701e+07 3.4296e+07 3.48871e+07 3.56862e+07 3.67342e+07 3.8062e+07 3.96813e+07 4.15777e+07 4.3695e+07
          4.60242e+07 4.91531e+07 4.91363e+07 4.6014e+07 4.36832e+07 4.1566e+07 3.96696e+07 3.80503e+07 3.67225e+07 3.56746e+07 3.48755e+07 3.42844e+07
          3.38585e+07 3.35586e+07 3.33514e+07 3.32108e+07 3.31167e+07 3.30544e+07 3.30138e+07 3.29875e+07 3.29706e+07 3.29598e+07 3.2953e+07 3.29487e+07
          3.2946e+07 3.29443e+07 3.29432e+07 3.29424e+07 3.29418e+07 3.29411e+07 3.29403e+07 3.29391e+07 3.29374e+07 3.29346e+07 3.29303e+07 3.29236e+07
          3.29133e+07 3.28974e+07 3.28733e+07 3.2837e+07 3.27832e+07 3.27044e+07 3.25908e+07 3.24296e+07 3.22053e+07 3.18997e+07 3.14929e+07 3.09658e+07
          3.03024e+07 2.94954e+07 2.85456e+07 2.74914e+07 2.2e+07 2.74914e+07 2.85456e+07 2.94954e+07 3.03024e+07 3.09658e+07 3.14929e+07 3.18997e+07
          3.22053e+07 3.24296e+07 3.25908e+07 3.27044e+07 3.27832e+07 3.2837e+07 3.28733e+07 3.28974e+07 3.29133e+07 3.29236e+07 3.29303e+07 3.29346e+07
          3.29374e+07 3.29391e+07 3.29403e+07 3.29411e+07 3.29418e+07 3.29424e+07 3.29432e+07 3.29443e+07 3.2946e+07 3.29487e+07 3.2953e+07 3.29598e+07
          3.29706e+07 3.29875e+07 3.30138e+07 3.30544e+07 3.31167e+07 3.32108e+07 3.33514e+07 3.35586e+07 3.38585e+07 3.42844e+07 3.48755e+07 3.56746e+07
          3.67225e+07 3.80503e+07 3.96696e+07 4.1566e+07 4.36832e+07 4.6014e+07 4.91363e+07
        </DataArray>
        <DataArray type="Float32" Name="pressure_gas" NumberOfComponents="1" format="ascii">
          4.95e+07 4.60535e+07 4.95e+07 4.60406e+07 4.38109e+07 4.37995e+07 4.16809e+07 4.16692e+07 3.97863e+07 3.97747e+07 3.81667e+07 3.81551e+07
          3.68389e+07 3.68273e+07 3.5791e+07 3.57793e+07 3.49919e+07 3.49802e+07 3.44007e+07 3.43891e+07 3.39748e+07 3.39632e+07 3.36749e+07 3.36633e+07
          3.34678e+07 3.34561e+07 3.33271e+07 3.33155e+07 3.3233e+07 3.32213e+07 3.31708e+07 3.31591e+07 3.31301e+07 3.31185e+07 3.31038e+07 3.30922e+07
          3.30869e+07 3.30753e+07 3.30762e+07 3.30645e+07 3.30693e+07 3.30577e+07 3.30651e+07 3.30534e+07 3.30624e+07 3.30507e+07 3.30606e+07 3.3049e+07
          3.30595e+07 3.30479e+07 3.30587e+07 3.30471e+07 3.30581e+07 3.30465e+07 3.30574e+07 3.30458e+07 3.30566e+07 3.3045e+07 3.30555e+07 3.30438e+07
          3.30537e+07 3.30421e+07 3.30509e+07 3.30393e+07 3.30466e+07 3.3035e+07 3.30399e+07 3.30283e+07 3.30296e+07 3.3018e+07 3.30137e+07 3.30021e+07
          3.29896e+07 3.29779e+07 3.29533e+07 3.29417e+07 3.28995e+07 3.28879e+07 3.28207e+07 3.28091e+07 3.27071e+07 3.26954e+07 3.25459e+07 3.25343e+07
          3.23216e+07 3.231e+07 3.2016e+07 3.20044e+07 3.16092e+07 3.15976e+07 3.1082e+07 3.10704e+07 3.04188e+07 3.04072e+07 2.96109e+07 2.95993e+07