<?xml version="1.0"?>
<VTKFile type="UnstructuredGrid" version="0.1" byte_order="LittleEndian">
  <UnstructuredGrid>
    <Piece NumberOfCells="1000" NumberOfPoints="1111">
      <PointData Scalars="pressure_o">
        <DataArray type="Float32" Name="pressure_o" NumberOfComponents="1" format="ascii">
          4.95e+07 4.61789e+07 4.95e+07 4.61677e+07 4.40187e+07 4.40087e+07 4.19172e+07 4.1907e+07 4.00143e+07 4.00041e+07 3.83651e+07 3.83548e+07
          3.69997e+07 3.69895e+07 3.5915e+07 3.59048e+07 3.50842e+07 3.5074e+07 3.44677e+07 3.44575e+07 3.40222e+07 3.4012e+07 3.37076e+07 3.36974e+07
          3.34896e+07 3.34794e+07 3.3341e+07 3.33307e+07 3.3241e+07 3.32308e+07 3.31745e+07 3.31643e+07 3.31307e+07 3.31205e+07 3.31022e+07 3.30919e+07
          3.30837e+07 3.30734e+07 3.30718e+07 3.30615e+07 3.30641e+07 3.30539e+07 3.30593e+07 3.3049e+07 3.30562e+07 3.30459e+07 3.30541e+07 3.30439e+07
          3.30528e+07 3.30426e+07 3.30519e+07 3.30416e+07 3.30511e+07 3.30409e+07 3.30503e+07 3.30401e+07 3.30493e+07 3.30391e+07 3.3048e+07 3.30378e+07
          3.3046e+07 3.30357e+07 3.30429e+07 3.30327e+07 3.30381e+07 3.30279e+07 3.30308e+07 3.30206e+07 3.30195e+07 3.30093e+07 3.30023e+07 3.29921e+07
          3.29763e+07 3.29661e+07 3.29373e+07 3.29271e+07 3.28796e+07 3.28694e+07 3.27952e+07 3.2785e+07 3.26733e+07 3.2663e+07 3.25e+07 3.24897e+07
          3.22578e+07 3.22476e+07 3.19262e+07 3.1916e+07 3.1482e+07 3.14718e+07 3.09026e+07 3.08924e+07 3.01702e+07 3.016e+07 2.92799e+07 2.92697e+07
          2.82568e+07 2.82465e+07 2.66349e+07 2.66273e+07 2.21634e+07 2.21553e+07 2.66349e+07 2.66273e+07 2.82568e+07 2.82465e+07 2.92799e+07 2.92697e+07
          3.01702e+07 3.016e+07 3.09026e+07 3.08924e+07 3.1482e+07 3.14718e+07 3.19262e+07 3.1916e+07 3.22578e+07 3.22476e+07 3.25e+07 3.24897e+07
          3.26733e+07 3.2663e+07 3.27952e+07 3.2785e+07 3.28796e+07 3.28694e+07 3.29373e+07 3.29271e+07 3.29763e+07 3.29661e+07 3.30023e+07 3.29921e+07
          3.30195e+07 3.30093e+07 3.30308e+07 3.30206e+07 3.30381e+07 3.30279e+07 3.30429e+07 3.30327e+07 3.3046e+07 3.30357e+07 3.3048e+07 3.30378e+07
          3.30493e+07 3.30391e+07 3.30503e+07 3.30401e+07 3.30511e+07 3.30409e+07 3.30519e+07 3.30416e+07 3.30528e+07 3.30426e+07 3.30541e+07 3.30439e+07
          3.30562e+07 3.30459e+07 3.30593e+07 3.3049e+07 3.30641e+07 3.30539e+07 3.30718e+07 3.30615e+07 3.30837e+07 3.30734e+07 3.31022e+07 3.30919e+07
          3.31307e+07 3.31205e+07 3.31745e+07 3.31643e+07 3.3241e+07 3.32308e+07 3.3341e+07 3.33307e+07 3.34896e+07 3.34794e+07 3.37076e+07 3.36974e+07
          3.40222e+07 3.4012e+07 3.44677e+07 3.44575e+07 3.50842e+07 3.5074e+07 3.5915e+07 3.59048e+07 3.69997e+07 3.69895e+07 3.83651e+07 3.83548e+07
          4.00143e+07 4.00041e+07 4.19172e+07 4.1907e+07 4.40187e+07 4.40087e+07 4.61789e+07 4.61677e+07 4.95e+07 4.95e+07 4.95e+07 4.61581e+07
          4.39985e+07 4.18967e+07 3.99939e+07 3.83446e+07 3.69793e+07 3.58946e+07 3.50638e+07 3.44472e+07 3.40018e+07 3.36872e+07 3.34692e+07 3.33205e+07
          3.32205e+07 3.3154e+07 3.31103e+07 3.30817e+07 3.30632e+07 3.30513e+07 3.30437e+07 3.30388e+07 3.30357e+07 3.30337e+07 3.30324e+07 3.30314e+07
          3.30306e+07 3.30298e+07 3.30289e+07 3.30275e+07 3.30255e+07 3.30224e+07 3.30177e+07 3.30103e+07 3.2999e+07 3.29818e+07 3.29558e+07 3.29169e+07
          3.28592e+07 3.27747e+07 3.26528e+07 3.24795e+07 3.22374e+07 3.19057e+07 3.14616e+07 3.08822e+07 3.01498e+07 2.92595e+07 2.82365e+07 2.6621e+07
          2.214e+07 2.6621e+07 2.82365e+07 2.92595e+07 3.01498e+07 3.08822e+07 3.14616e+07 3.19057e+07 3.22374e+07 3.24795e+07 3.26528e+07 3.27747e+07
          3.28592e+07 3.29169e+07 3.29558e+07 3.29818e+07 3.2999e+07 3.30103e+07 3.30177e+07 3.30224e+07 3.30255e+07 3.30275e+07 3.30289e+07 3.30298e+07
          3.30306e+07 3.30314e+07 3.30324e+07 3.30337e+07 3.30357e+07 3.30388e+07 3.30437e+07 3.30513e+07 3.30632e+07 3.30817e+07 3.31103e+07 3.3154e+07
          3.32205e+07 3.33205e+07 3.34692e+07 3.36872e+07 3.40018e+07 3.44472e+07 3.50638e+07 3.58946e+07 3.69793e+07 3.83446e+07 3.99939e+07 4.18967e+07
          4.39985e+07 4.61581e+07 4.95e+07 4.95e+07 4.61501e+07 4.39881e+07 4.18865e+07 3.99837e+07 3.83344e+07 3.6969e+07 3.58843e+07 3.50536e+07
          3.4437e+07 3.39916e+07 3.3677e+07 3.3459e+07 3.33103e+07 3.32103e+07 3.31438e+07 3.31001e+07 3.30715e+07 3.3053e+07 3.30411e+07 3.30335e+07
          3.30286e+07 3.30255e+07 3.30235e+07 3.30221e+07 3.30212e+07 3.30204e+07 3.30196e+07 3.30187e+07 3.30173e+07 3.30153e+07 3.30122e+07 3.30074e+07
          3.30001e+07 3.29888e+07 3.29716e+07 3.29456e+07 3.29067e+07 3.2849e+07 3.27645e+07 3.26426e+07 3.24693e+07 3.22272e+07 3.18955e+07 3.14514e+07
          3.08719e+07 3.01396e+07 2.92492e+07 2.82264e+07 2.66159e+07 2.2117e+07 2.66159e+07 2.82264e+07 2.92492e+07 3.01396e+07 3.08719e+07 3.14514e+07
          3.18955e+07 3.22272e+07 3.24693e+07 3.26426e+07 3.27645e+07 3.2849e+07 3.29067e+07 3.29456e+07 3.29716e+07 3.29888e+07 3.30001e+07 3.30074e+07
          3.30122e+07 3.30153e+07 3.30173e+07 3.30187e+07 3.30196e+07 3.30204e+07 3.30212e+07 3.30221e+07 3.30235e+07 3.30255e+07 3.30286e+07 3.30335e+07
          3.30411e+07 3.3053e+07 3.30715e+07 3.31001e+07 3.31438e+07 3.32103e+07 3.33103e+07 3.3459e+07 3.3677e+07 3.39916e+07 3.4437e+07 3.50536e+07
          3.58843e+07 3.6969e+07 3.83344e+07 3.99837e+07 4.18865e+07 4.39881e+07 4.61501e+07 4.95e+07 4.95e+07 4.61436e+07 4.39775e+07 4.18762e+07
          3.99734e+07 3.83241e+07 3.69588e+07 3.58741e+07 3.50433e+07 3.44268e+07 3.39813e+07 3.36667e+07 3.34487e+07 3.33001e+07 3.32001e+07 3.31336e+07
          3.30898e+07 3.30613e+07 3.30428e+07 3.30309e+07 3.30232e+07 3.30184e+07 3.30153e+07 3.30133e+07 3.30119e+07 3.3011e+07 3.30102e+07 3.30094e+07
          3.30084e+07 3.30071e+07 3.30051e+07 3.3002e+07 3.29972e+07 3.29899e+07 3.29786e+07 3.29614e+07 3.29354e+07 3.28964e+07 3.28387e+07 3.27543e+07
          3.26324e+07 3.24591e+07 3.2217e+07 3.18853e+07 3.14411e+07 3.08617e+07 3.01293e+07 2.9239e+07 2.82161e+07 2.66121e+07 2.20862e+07 2.66121e+07
          2.82161e+07 2.9239e+07 3.01293e+07 3.08617e+07 3.14411e+07 3.18853e+07 3.2217e+07 3.24591e+07 3.26324e+07 3.27543e+07 3.28387e+07 3.28964e+07
          3.29354e+07 3.29614e+07 3.29786e+07 3.29899e+07 3.29972e+07 3.3002e+07 3.30051e+07 3.30071e+07 3.30084e+07 3.30094e+07 3.30102e+07 3.3011e+07
          3.30119e+07 3.30133e+07 3.30153e+07 3.30184e+07 3.30232e+07 3.30309e+07 3.30428e+07 3.30613e+07 3.30898e+07 3.31336e+07 3.32001e+07 3.33001e+07
          3.34487e+07 3.36667e+07 3.39813e+07 3.44268e+07 3.50433e+07 3.58741e+07 3.69588e+07 3.83241e+07 3.99734e+07 4.18762e+07 4.39775e+07 4.61436e+07
          4.95e+07 4.93206e+07 4.61696e+07 4.39614e+07 4.1867e+07 3.9963e+07 3.83139e+07 3.69486e+07 3.58639e+07 3.50331e+07 3.44165e+07 3.39711e+07
          3.36565e+07 3.34385e+07 3.32898e+07 3.31899e+07 3.31234e+07 3.30796e+07 3.3051e+07 3.30325e+07 3.30206e+07 3.3013e+07 3.30081e+07 3.3005e+07
          3.3003e+07 3.30017e+07 3.30007e+07 3.3e+07 3.29992e+07 3.29982e+07 3.29969e+07 3.29948e+07 3.29918e+07 3.2987e+07 3.29797e+07 3.29684e+07
          3.29512e+07 3.29252e+07 3.28862e+07 3.28285e+07 3.27441e+07 3.26222e+07 3.24488e+07 3.22067e+07 3.18751e+07 3.14309e+07 3.08515e+07 3.01191e+07
          2.92289e+07 2.82055e+07 2.66096e+07 2.20473e+07 2.66096e+07 2.82055e+07 2.92289e+07 3.01191e+07 3.08515e+07 3.14309e+07 3.18751e+07 3.22067e+07
          3.24488e+07 3.26222e+07 3.27441e+07 3.28285e+07 3.28862e+07 3.29252e+07 3.29512e+07 3.29684e+07 3.29797e+07 3.2987e+07 3.29918e+07 3.29948e+07
          3.29969e+07 3.29982e+07 3.29992e+07 3.3e+07 3.30007e+07 3.30017e+07 3.3003e+07 3.3005e+07 3.30081e+07 3.3013e+07 3.30206e+07 3.30325e+07
          3.3051e+07 3.30796e+07 3.31234e+07 3.31899e+07 3.32898e+07 3.34385e+07 3.36565e+07 3.39711e+07 3.44165e+07 3.50331e+07 3.58639e+07 3.69486e+07
          3.83139e+07 3.9963e+07 4.1867e+07 4.39614e+07 4.61696e+07 4.93206e+07 4.92599e+07 4.61741e+07 4.3949e+07 4.1857e+07 3.99527e+07 3.83037e+07
          3.69383e+07 3.58536e+07 3.50229e+07 3.44063e+07 3.39609e+07 3.36463e+07 3.34283e+07 3.32796e+07 3.31796e+07 3.31131e+07 3.30694e+07 3.30408e+07
          3.30223e+07 3.30104e+07 3.30028e+07 3.29979e+07 3.29948e+07 3.29928e+07 3.29915e+07 3.29905e+07 3.29897e+07 3.29889e+07 3.2988e+07 3.29866e+07
          3.29846e+07 3.29815e+07 3.29768e+07 3.29694e+07 3.29582e+07 3.2941e+07 3.29149e+07 3.2876e+07 3.28183e+07 3.27338e+07 3.26119e+07 3.24386e+07
          3.21965e+07 3.18649e+07 3.14207e+07 3.08413e+07 3.01089e+07 2.92188e+07 2.81945e+07 2.66087e+07 2.2e+07 2.66087e+07 2.81945e+07 2.92188e+07
          3.01089e+07 3.08413e+07 3.14207e+07 3.18649e+07 3.21965e+07 3.24386e+07 3.26119e+07 3.27338e+07 3.28183e+07 3.2876e+07 3.29149e+07 3.2941e+07
          3.29582e+07 3.29694e+07 3.29768e+07 3.29815e+07 3.29846e+07 3.29866e+07 3.2988e+07 3.29889e+07 3.29897e+07 3.29905e+07 3.29915e+07 3.29928e+07
          3.29948e+07 3.29979e+07 3.30028e+07 3.30104e+07 3.30223e+07 3.30408e+07 3.30694e+07 3.31131e+07 3.31796e+07 3.32796e+07 3.34283e+07 3.36463e+07
          3.39609e+07 3.44063e+07 3.50229e+07 3.58536e+07 3.69383e+07 3.83037e+07 3.99527e+07 4.1857e+07 4.3949e+07 4.61741e+07 4.92599e+07 4.92148e+07
          4.61744e+07 4.39372e+07 4.1847e+07 3.99425e+07 3.82935e+07 3.69281e+07 3.58434e+07 3.50126e+07 3.43961e+07 3.39507e+07 3.36361e+07 3.34181e+07
          3.32694e+07 3.31694e+07 3.31029e+07 3.30592e+07 3.30306e+07 3.30121e+07 3.30002e+07 3.29926e+07 3.29877e+07 3.29846e+07 3.29826e+07 3.29812e+07
          3.29803e+07 3.29795e+07 3.29787e+07 3.29778e+07 3.29764e+07 3.29744e+07 3.29713e+07 3.29666e+07 3.29592e+07 3.29479e+07 3.29307e+07 3.29047e+07
          3.28658e+07 3.28081e+07 3.27236e+07 3.26017e+07 3.24284e+07 3.21863e+07 3.18546e+07 3.14105e+07 3.08311e+07 3.00987e+07 2.92085e+07 2.81848e+07
          2.65997e+07 2.2e+07 2.65997e+07 2.81848e+07 2.92085e+07 3.00987e+07 3.08311e+07 3.14105e+07 3.18546e+07 3.21863e+07 3.24284e+07 3.26017e+07
          3.27236e+07 3.28081e+07 3.28658e+07 3.29047e+07 3.29307e+07 3.29479e+07 3.29592e+07 3.29666e+07 3.29713e+07 3.29744e+07 3.29764e+07 3.29778e+07
          3.29787e+07 3.29795e+07 3.29803e+07 3.29812e+07 3.29826e+07 3.29846e+07 3.29877e+07 3.29926e+07 3.30002e+07 3.30121e+07 3.30306e+07 3.30592e+07
          3.31029e+07 3.31694e+07 3.32694e+07 3.34181e+07 3.36361e+07 3.39507e+07 3.43961e+07 3.50126e+07 3.58434e+07 3.69281e+07 3.82935e+07 3.99425e+07
          4.1847e+07 4.39372e+07 4.61744e+07 4.92148e+07 4.91799e+07 4.61716e+07 4.3926e+07 4.18369e+07 3.99322e+07 3.82832e+07 3.69179e+07 3.58332e+07
          3.50024e+07 3.43859e+07 3.39404e+07 3.36258e+07 3.34078e+07 3.32592e+07 3.31592e+07 3.30927e+07 3.30489e+07 3.30204e+07 3.30019e+07 3.299e+07
          3.29823e+07 3.29775e+07 3.29744e+07 3.29724e+07 3.2971e+07 3.29701e+07 3.29693e+07 3.29685e+07 3.29675e+07 3.29662e+07 3.29642e+07 3.29611e+07
          3.29563e+07 3.2949e+07 3.29377e+07 3.29205e+07 3.28945e+07 3.28556e+07 3.27978e+07 3.27134e+07 3.25915e+07 3.24182e+07 3.21761e+07 3.18444e+07
          3.14003e+07 3.08208e+07 3.00884e+07 2.91982e+07 2.8175e+07 2.65909e+07 2.2e+07 2.65909e+07 2.8175e+07 2.91982e+07 3.00884e+07 3.08208e+07
          3.14003e+07 3.18444e+07 3.21761e+07 3.24182e+07 3.25915e+07 3.27134e+07 3.27978e+07 3.28556e+07 3.28945e+07 3.29205e+07 3.29377e+07 3.2949e+07
          3.29563e+07 3.29611e+07 3.29642e+07 3.29662e+07 3.29675e+07 3.29685e+07 3.29693e+07 3.29701e+07 3.2971e+07 3.29724e+07 3.29744e+07 3.29775e+07
          3.29823e+07 3.299e+07 3.30019e+07 3.30204e+07 3.30489e+07 3.30927e+07 3.31592e+07 3.32592e+07 3.34078e+07 3.36258e+07 3.39404e+07 3.43859e+07
          3.50024e+07 3.58332e+07 3.69179e+07 3.82832e+07 3.99322e+07 4.18369e+07 4.3926e+07 4.61716e+07 4.91799e+07 4.91548e+07 4.61658e+07 4.39151e+07
          4.18268e+07 3.9922e+07 3.8273e+07 3.69076e+07 3.5823e+07 3.49922e+07 3.43756e+07 3.39302e+07 3.36156e+07 3.33976e+07 3.3249e+07 3.3149e+07
          3.30825e+07 3.30387e+07 3.30102e+07 3.29917e+07 3.29797e+07 3.29721e+07 3.29673e+07 3.29641e+07 3.29621e+07 3.29608e+07 3.29598e+07 3.29591e+07
          3.29583e+07 3.29573e+07 3.2956e+07 3.2954e+07 3.29509e+07 3.29461e+07 3.29388e+07 3.29275e+07 3.29103e+07 3.28843e+07 3.28453e+07 3.27876e+07
          3.27032e+07 3.25813e+07 3.2408e+07 3.21658e+07 3.18342e+07 3.139e+07 3.08106e+07 3.00782e+07 2.91879e+07 2.8165e+07 2.65822e+07 2.2e+07
          2.65822e+07 2.8165e+07 2.91879e+07 3.00782e+07 3.08106e+07 3.139e+07 3.18342e+07 3.21658e+07 3.2408e+07 3.25813e+07 3.27032e+07 3.27876e+07
          3.28453e+07 3.28843e+07 3.29103e+07 3.29275e+07 3.29388e+07 3.29461e+07 3.29509e+07 3.2954e+07 3.2956e+07 3.29573e+07 3.29583e+07 3.29591e+07
          3.29598e+07 3.29608e+07 3.29621e+07 3.29641e+07 3.29673e+07 3.29721e+07 3.29797e+07 3.29917e+07 3.30102e+07 3.30387e+07 3.30825e+07 3.3149e+07
          3.3249e+07 3.33976e+07 3.36156e+07 3.39302e+07 3.43756e+07 3.49922e+07 3.5823e+07 3.69076e+07 3.8273e+07 3.9922e+07 4.18268e+07 4.39151e+07
          4.61658e+07 4.91548e+07 4.91397e+07 4.6157e+07 4.39047e+07 4.18166e+07 3.99117e+07 3.82628e+07 3.68974e+07 3.58127e+07 3.4982e+07 3.43654e+07
          3.392e+07 3.36054e+07 3.33874e+07 3.32387e+07 3.31387e+07 3.30722e+07 3.30285e+07 3.29999e+07 3.29814e+07 3.29695e+07 3.29619e+07 3.2957e+07
          3.29539e+07 3.29519e+07 3.29506e+07 3.29496e+07 3.29488e+07 3.29481e+07 3.29471e+07 3.29457e+07 3.29437e+07 3.29406e+07 3.29359e+07 3.29285e+07
          3.29173e+07 3.29001e+07 3.28741e+07 3.28351e+07 3.27774e+07 3.2693e+07 3.2571e+07 3.23977e+07 3.21556e+07 3.1824e+07 3.13798e+07 3.08004e+07
          3.0068e+07 2.91777e+07 2.81549e+07 2.65736e+07 2.2e+07 2.65736e+07 2.81549e+07 2.91777e+07 3.0068e+07 3.08004e+07 3.13798e+07 3.1824e+07
          3.21556e+07 3.23977e+07 3.2571e+07 3.2693e+07 3.27774e+07 3.28351e+07 3.28741e+07 3.29001e+07 3.29173e+07 3.29285e+07 3.29359e+07 3.29406e+07
          3.29437e+07 3.29457e+07 3.29471e+07 3.29481e+07 3.29488e+07 3.29496e+07 3.29506e+07 3.29519e+07 3.29539e+07 3.2957e+07 3.29619e+07 3.29695e+07
          3.29814e+07 3.29999e+07 3.30285e+07 3.30722e+07 3.31387e+07 3.32387e+07 3.33874e+07 3.36054e+07 3.392e+07 3.43654e+07 3.4982e+07 3.58127e+07
          3.68974e+07 3.82628e+07 3.99117e+07 4.18166e+07 4.39047e+07 4.6157e+07 4.91397e+07
        </DataArray>
        <DataArray type="Float32" Name="pressure_w" NumberOfComponents="1" format="ascii">
          4.95e+07 4.61789e+07 4.95e+07 4.61677e+07 4.40187e+07 4.40087e+07 4.19172e+07 4.1907e+07 4.00143e+07 4.00041e+07 3.83651e+07 3.83548e+07
          3.69997e+07 3.69895e+07 3.5915e+07 3.59048e+07 3.50842e+07 3.5074e+07 3.44677e+07 3.44575e+07 3.40222e+07 3.4012e+07 3.37076e+07 3.36974e+07
          3.34896e+07 3.34794e+07 3.3341e+07 3.33307e+07 3.3241e+07 3.32308e+07 3.31745e+07 3.31643e+07 3.31307e+07 3.31205e+07 3.31022e+07 3.30919e+07
          3.30837e+07 3.30734e+07 3.30718e+07 3.30615e+07 3.30641e+07 3.30539e+07 3.30593e+07 3.3049e+07 3.30562e+07 3.30459e+07 3.30541e+07 3.30439e+07
          3.30528e+07 3.30426e+07 3.30519e+07 3.30416e+07 3.30511e+07 3.30409e+07 3.30503e+07 3.30401e+07 3.30493e+07 3.30391e+07 3.3048e+07 3.30378e+07
          3.3046e+07 3.30357e+07 3.30429e+07 3.30327e+07 3.30381e+07 3.30279e+07 3.30308e+07 3.30206e+07 3.30195e+07 3.30093e+07 3.30023e+07 3.29921e+07
          3.29763e+07 3.29661e+07 3.29373e+07 3.29271e+07 3.28796e+07 3.28694e+07 3.27952e+07 3.2785e+07 3.26733e+07 3.2663e+07 3.25e+07 3.24897e+07
          3.22578e+07 3.22476e+07 3.19262e+07 3.1916e+07 3.1482e+07 3.14718e+07 3.09026e+07 3.08924e+07 3.01702e+07 3.016e+07 2.92799e+07 2.92697e+07
          2.82568e+07 2.82465e+07 2.66349e+07 2.66273e+07 2.21634e+07 2.21553e+07 2.66349e+07 2.66273e+07 2.82568e+07 2.82465e+07 2.92799e+07 2.92697e+07
          3.01702e+07 3.016e+07 3.09026e+07 3.08924e+07 3.1482e+07 3.14718e+07 3.19262e+07 3.1916e+07 3.22578e+07 3.22476e+07 3.25e+07 3.24897e+07
          3.26733e+07 3.2663e+07 3.27952e+07 3.2785e+07 3.28796e+07 3.28694e+07 3.29373e+07 3.29271e+07 3.29763e+07 3.29661e+07 3.30023e+07 3.29921e+07
          3.30195e+07 3.30093e+07 3.30308e+07 3.30206e+07 3.30381e+07 3.30279e+07 3.30429e+07 3.30327e+07 3.3046e+07 3.30357e+07 3.3048e+07 3.30378e+07
          3.30493e+07 3.30391e+07 3.30503e+07 3.30401e+07 3.30511e+07 3.30409e+07 3.30519e+07 3.30416e+07 3.30528e+07 3.30426e+07 3.30541e+07 3.30439e+07
          3.30562e+07 3.30459e+07 3.30593e+07 3.3049e+07 3.30641e+07 3.30539e+07 3.30718e+07 3.30615e+07 3.30837e+07 3.30734e+07 3.31022e+07 3.30919e+07
          3.31307e+07 3.31205e+07 3.31745e+07 3.31643e+07 3.3241e+07 3.32308e+07 3.3341e+07 3.33307e+07 3.34896e+07 3.34794e+07 3.37076e+07 3.36974e+07
          3.40222e+07 3.4012e+07 3.44677e+07 3.44575e+07 3.50842e+07 3.5074e+07 3.5915e+07 3.59048e+07 3.69997e+07 3.69895e+07 3.83651e+07 3.83548e+07
          4.00143e+07 4.00041e+07 4.19172e+07 4.1907e+07 4.40187e+07 4.40087e+07 4.61789e+07 4.61677e+07 4.95e+07 4.95e+07 4.95e+07 4.61581e+07
          4.39985e+07 4.18967e+07 3.99939e+07 3.83446e+07 3.69793e+07 3.58946e+07 3.50638e+07 3.44472e+07 3.40018e+07 3.36872e+07 3.34692e+07 3.33205e+07
          3.32205e+07 3.3154e+07 3.31103e+07 3.30817e+07 3.30632e+07 3.30513e+07 3.30437e+07 3.30388e+07 3.30357e+07 3.30337e+07 3.30324e+07 3.30314e+07
          3.30306e+07 3.30298e+07 3.30289e+07 3.30275e+07 3.30255e+07 3.30224e+07 3.30177e+07 3.30103e+07 3.2999e+07 3.29818e+07 3.29558e+07 3.29169e+07
          3.28592e+07 3.27747e+07 3.26528e+07 3.24795e+07 3.22374e+07 3.19057e+07 3.14616e+07 3.08822e+07 3.01498e+07 2.92595e+07 2.82365e+07 2.6621e+07
          2.214e+07 2.6621e+07 2.82365e+07 2.92595e+07 3.01498e+07 3.08822e+07 3.14616e+07 3.19057e+07 3.22374e+07 3.24795e+07 3.26528e+07 3.27747e+07
          3.28592e+07 3.29169e+07 3.29558e+07 3.29818e+07 3.2999e+07 3.30103e+07 3.30177e+07 3.30224e+07 3.30255e+07 3.30275e+07 3.30289e+07 3.30298e+07
          3.30306e+07 3.30314e+07 3.30324e+07 3.30337e+07 3.30357e+07 3.30388e+07 3.30437e+07 3.30513e+07 3.30632e+07 3.30817e+07 3.31103e+07 3.3154e+07
          3.32205e+07 3.33205e+07 3.34692e+07 3.36872e+07 3.40018e+07 3.44472e+07 3.50638e+07 3.58946e+07 3.69793e+07 3.83446e+07 3.99939e+07 4.18967e+07
          4.39985e+07 4.61581e+07 4.95e+07 4.95e+07 4.61501e+07 4.39881e+07 4.18865e+07 3.99837e+07 3.83344e+07 3.6969e+07 3.58843e+07 3.50536e+07
          3.4437e+07 3.39916e+07 3.3677e+07 3.3459e+07 3.33103e+07 3.32103e+07 3.31438e+07 3.31001e+07 3.30715e+07 3.3053e+07 3.30411e+07 3.30335e+07
          3.30286e+07 3.30255e+07 3.30235e+07 3.30221e+07 3.30212e+07 3.30204e+07 3.30196e+07 3.30187e+07 3.30173e+07 3.30153e+07 3.30122e+07 3.30074e+07
          3.30001e+07 3.29888e+07 3.29716e+07 3.29456e+07 3.29067e+07 3.2849e+07 3.27645e+07 3.26426e+07 3.24693e+07 3.22272e+07 3.18955e+07 3.14514e+07
          3.08719e+07 3.01396e+07 2.92492e+07 2.82264e+07 2.66159e+07 2.2117e+07 2.66159e+07 2.82264e+07 2.92492e+07 3.01396e+07 3.08719e+07 3.14514e+07
          3.18955e+07 3.22272e+07 3.24693e+07 3.26426e+07 3.27645e+07 3.2849e+07 3.29067e+07 3.29456e+07 3.29716e+07 3.29888e+07 3.30001e+07 3.30074e+07
          3.30122e+07 3.30153e+07 3.30173e+07 3.30187e+07 3.30196e+07 3.30204e+07 3.30212e+07 3.30221e+07 3.30235e+07 3.30255e+07 3.30286e+07 3.30335e+07
          3.30411e+07 3.3053e+07 3.30715e+07 3.31001e+07 3.31438e+07 3.32103e+07 3.33103e+07 3.3459e+07 3.3677e+07 3.39916e+07 3.4437e+07 3.50536e+07
          3.58843e+07 3.6969e+07 3.83344e+07 3.99837e+07 4.18865e+07 4.39881e+07 4.61501e+07 4.95e+07 4.95e+07 4.61436e+07 4.39775e+07 4.18762e+07
          3.99734e+07 3.83241e+07 3.69588e+07 3.58741e+07 3.50433e+07 3.44268e+07 3.39813e+07 3.36667e+07 3.34487e+07 3.33001e+07 3.32001e+07 3.31336e+07
          3.30898e+07 3.30613e+07 3.30428e+07 3.30309e+07 3.30232e+07 3.30184e+07 3.30153e+07 3.30133e+07 3.30119e+07 3.3011e+07 3.30102e+07 3.30094e+07
          3.30084e+07 3.30071e+07 3.30051e+07 3.3002e+07 3.29972e+07 3.29899e+07 3.29786e+07 3.29614e+07 3.29354e+07 3.28964e+07 3.28387e+07 3.27543e+07
          3.26324e+07 3.24591e+07 3.2217e+07 3.18853e+07 3.14411e+07 3.08617e+07 3.01293e+07 2.9239e+07 2.82161e+07 2.66121e+07 2.20862e+07 2.66121e+07
          2.82161e+07 2.9239e+07 3.01293e+07 3.08617e+07 3.14411e+07 3.18853e+07 3.2217e+07 3.24591e+07 3.26324e+07 3.27543e+07 3.28387e+07 3.28964e+07
          3.29354e+07 3.29614e+07 3.29786e+07 3.29899e+07 3.29972e+07 3.3002e+07 3.30051e+07 3.30071e+07 3.30084e+07 3.30094e+07 3.30102e+07 3.3011e+07
          3.30119e+07 3.30133e+07 3.30153e+07 3.30184e+07 3.30232e+07 3.30309e+07 3.30428e+07 3.30613e+07 3.30898e+07 3.31336e+07 3.32001e+07 3.33001e+07
          3.34487e+07 3.36667e+07 3.39813e+07 3.44268e+07 3.50433e+07 3.58741e+07 3.69588e+07 3.83241e+07 3.99734e+07 4.18762e+07 4.39775e+07 4.61436e+07
          4.95e+07 4.93206e+07 4.61696e+07 4.39614e+07 4.1867e+07 3.9963e+07 3.83139e+07 3.69486e+07 3.58639e+07 3.50331e+07 3.44165e+07 3.39711e+07
          3.36565e+07 3.34385e+07 3.32898e+07 3.31899e+07 3.31234e+07 3.30796e+07 3.3051e+07 3.30325e+07 3.30206e+07 3.3013e+07 3.30081e+07 3.3005e+07
          3.3003e+07 3.30017e+07 3.30007e+07 3.3e+07 3.29992e+07 3.29982e+07 3.29969e+07 3.29948e+07 3.29918e+07 3.2987e+07 3.29797e+07 3.29684e+07
          3.29512e+07 3.29252e+07 3.28862e+07 3.28285e+07 3.27441e+07 3.26222e+07 3.24488e+07 3.22067e+07 3.18751e+07 3.14309e+07 3.08515e+07 3.01191e+07
          2.92289e+07 2.82055e+07 2.66096e+07 2.20473e+07 2.66096e+07 2.82055e+07 2.92289e+07 3.01191e+07 3.08515e+07 3.14309e+07 3.18751e+07 3.22067e+07
          3.24488e+07 3.26222e+07 3.27441e+07 3.28285e+07 3.28862e+07 3.29252e+07 3.29512e+07 3.29684e+07 3.29797e+07 3.2987e+07 3.29918e+07 3.29948e+07
          3.29969e+07 3.29982e+07 3.29992e+07 3.3e+07 3.30007e+07 3.30017e+07 3.3003e+07 3.3005e+07 3.30081e+07 3.3013e+07 3.30206e+07 3.30325e+07
          3.3051e+07 3.30796e+07 3.31234e+07 3.31899e+07 3.32898e+07 3.34385e+07 3.36565e+07 3.39711e+07 3.44165e+07 3.50331e+07 3.58639e+07 3.69486e+07
          3.83139e+07 3.9963e+07 4.1867e+07 4.39614e+07 4.61696e+07 4.93206e+07 4.92599e+07 4.61741e+07 4.3949e+07 4.1857e+07 3.99527e+07 3.83037e+07
          3.69383e+07 3.58536e+07 3.50229e+07 3.44063e+07 3.39609e+07 3.36463e+07 3.34283e+07 3.32796e+07 3.31796e+07 3.31131e+07 3.30694e+07 3.30408e+07
          3.30223e+07 3.30104e+07 3.30028e+07 3.29979e+07 3.29948e+07 3.29928e+07 3.29915e+07 3.29905e+07 3.29897e+07 3.29889e+07 3.2988e+07 3.29866e+07
          3.29846e+07 3.29815e+07 3.29768e+07 3.29694e+07 3.29582e+07 3.2941e+07 3.29149e+07 3.2876e+07 3.28183e+07 3.27338e+07 3.26119e+07 3.24386e+07
          3.21965e+07 3.18649e+07 3.14207e+07 3.08413e+07 3.01089e+07 2.92188e+07 2.81945e+07 2.66087e+07 2.2e+07 2.66087e+07 2.81945e+07 2.92188e+07
          3.01089e+07 3.08413e+07 3.14207e+07 3.18649e+07 3.21965e+07 3.24386e+07 3.26119e+07 3.27338e+07 3.28183e+07 3.2876e+07 3.29149e+07 3.2941e+07
          3.29582e+07 3.29694e+07 3.29768e+07 3.29815e+07 3.29846e+07 3.29866e+07 3.2988e+07 3.29889e+07 3.29897e+07 3.29905e+07 3.29915e+07 3.29928e+07
          3.29948e+07 3.29979e+07 3.30028e+07 3.30104e+07 3.30223e+07 3.30408e+07 3.30694e+07 3.31131e+07 3.31796e+07 3.32796e+07 3.34283e+07 3.36463e+07
          3.39609e+07 3.44063e+07 3.50229e+07 3.58536e+07 3.69383e+07 3.83037e+07 3.99527e+07 4.1857e+07 4.3949e+07 4.61741e+07 4.92599e+07 4.92148e+07
          4.61744e+07 4.39372e+07 4.1847e+07 3.99425e+07 3.82935e+07 3.69281e+07 3.58434e+07 3.50126e+07 3.43961e+07 3.39507e+07 3.36361e+07 3.34181e+07
          3.32694e+07 3.31694e+07 3.31029e+07 3.30592e+07 3.30306e+07 3.30121e+07 3.30002e+07 3.29926e+07 3.29877e+07 3.29846e+07 3.29826e+07 3.29812e+07
          3.29803e+07 3.29795e+07 3.29787e+07 3.29778e+07 3.29764e+07 3.29744e+07 3.29713e+07 3.29666e+07 3.29592e+07 3.29479e+07 3.29307e+07 3.29047e+07
          3.28658e+07 3.28081e+07 3.27236e+07 3.26017e+07 3.24284e+07 3.21863e+07 3.18546e+07 3.14105e+07 3.08311e+07 3.00987e+07 2.92085e+07 2.81848e+07
          2.65997e+07 2.2e+07 2.65997e+07 2.81848e+07 2.92085e+07 3.00987e+07 3.08311e+07 3.14105e+07 3.18546e+07 3.21863e+07 3.24284e+07 3.26017e+07
          3.27236e+07 3.28081e+07 3.28658e+07 3.29047e+07 3.29307e+07 3.29479e+07 3.29592e+07 3.29666e+07 3.29713e+07 3.29744e+07 3.29764e+07 3.29778e+07
          3.29787e+07 3.29795e+07 3.29803e+07 3.29812e+07 3.29826e+07 3.29846e+07 3.29877e+07 3.29926e+07 3.30002e+07 3.30121e+07 3.30306e+07 3.30592e+07
          3.31029e+07 3.31694e+07 3.32694e+07 3.34181e+07 3.36361e+07 3.39507e+07 3.43961e+07 3.50126e+07 3.58434e+07 3.69281e+07 3.82935e+07 3.99425e+07
          4.1847e+07 4.39372e+07 4.61744e+07 4.92148e+07 4.91799e+07 4.61716e+07 4.3926e+07 4.18369e+07 3.99322e+07 3.82832e+07 3.69179e+07 3.58332e+07
          3.50024e+07 3.43859e+07 3.39404e+07 3.36258e+07 3.34078e+07 3.32592e+07 3.31592e+07 3.30927e+07 3.30489e+07 3.30204e+07 3.30019e+07 3.299e+07
          3.29823e+07 3.29775e+07 3.29744e+07 3.29724e+07 3.2971e+07 3.29701e+07 3.29693e+07 3.29685e+07 3.29675e+07 3.29662e+07 3.29642e+07 3.29611e+07
          3.29563e+07 3.2949e+07 3.29377e+07 3.29205e+07 3.28945e+07 3.28556e+07 3.27978e+07 3.27134e+07 3.25915e+07 3.24182e+07 3.21761e+07 3.18444e+07
          3.14003e+07 3.08208e+07 3.00884e+07 2.91982e+07 2.8175e+07 2.65909e+07 2.2e+07 2.65909e+07 2.8175e+07 2.91982e+07 3.00884e+07 3.08208e+07
          3.14003e+07 3.18444e+07 3.21761e+07 3.24182e+07 3.25915e+07 3.27134e+07 3.27978e+07 3.28556e+07 3.28945e+07 3.29205e+07 3.29377e+07 3.2949e+07
          3.29563e+07 3.29611e+07 3.29642e+07 3.29662e+07 3.29675e+07 3.29685e+07 3.29693e+07 3.29701e+07 3.2971e+07 3.29724e+07 3.29744e+07 3.29775e+07
          3.29823e+07 3.299e+07 3.30019e+07 3.30204e+07 3.30489e+07 3.30927e+07 3.31592e+07 3.32592e+07 3.34078e+07 3.36258e+07 3.39404e+07 3.43859e+07
          3.50024e+07 3.58332e+07 3.69179e+07 3.82832e+07 3.99322e+07 4.18369e+07 4.3926e+07 4.61716e+07 4.91799e+07 4.91548e+07 4.61658e+07 4.39151e+07
          4.18268e+07 3.9922e+07 3.8273e+07 3.69076e+07 3.5823e+07 3.49922e+07 3.43756e+07 3.39302e+07 3.36156e+07 3.33976e+07 3.3249e+07 3.3149e+07
          3.30825e+07 3.30387e+07 3.30102e+07 3.29917e+07 3.29797e+07 3.29721e+07 3.29673e+07 3.29641e+07 3.29621e+07 3.29608e+07 3.29598e+07 3.29591e+07
          3.29583e+07 3.29573e+07 3.2956e+07 3.2954e+07 3.29509e+07 3.29461e+07 3.29388e+07 3.29275e+07 3.29103e+07 3.28843e+07 3.28453e+07 3.27876e+07
          3.27032e+07 3.25813e+07 3.2408e+07 3.21658e+07 3.18342e+07 3.139e+07 3.08106e+07 3.00782e+07 2.91879e+07 2.8165e+07 2.65822e+07 2.2e+07
          2.65822e+07 2.8165e+07 2.91879e+07 3.00782e+07 3.08106e+07 3.139e+07 3.18342e+07 3.21658e+07 3.2408e+07 3.25813e+07 3.27032e+07 3.27876e+07
          3.28453e+07 3.28843e+07 3.29103e+07 3.29275e+07 3.29388e+07 3.29461e+07 3.29509e+07 3.2954e+07 3.2956e+07 3.29573e+07 3.29583e+07 3.29591e+07
          3.29598e+07 3.29608e+07 3.29621e+07 3.29641e+07 3.29673e+07 3.29721e+07 3.29797e+07 3.29917e+07 3.30102e+07 3.30387e+07 3.30825e+07 3.3149e+07
          3.3249e+07 3.33976e+07 3.36156e+07 3.39302e+07 3.43756e+07 3.49922e+07 3.5823e+07 3.69076e+07 3.8273e+07 3.9922e+07 4.18268e+07 4.39151e+07
          4.61658e+07 4.91548e+07 4.91397e+07 4.6157e+07 4.39047e+07 4.18166e+07 3.99117e+07 3.82628e+07 3.68974e+07 3.58127e+07 3.4982e+07 3.43654e+07
          3.392e+07 3.36054e+07 3.33874e+07 3.32387e+07 3.31387e+07 3.30722e+07 3.30285e+07 3.29999e+07 3.29814e+07 3.29695e+07 3.29619e+07 3.2957e+07
          3.29539e+07 3.29519e+07 3.29506e+07 3.29496e+07 3.29488e+07 3.29481e+07 3.29471e+07 3.29457e+07 3.29437e+07 3.29406e+07 3.29359e+07 3.29285e+07
          3.29173e+07 3.29001e+07 3.28741e+07 3.28351e+07 3.27774e+07 3.2693e+07 3.2571e+07 3.23977e+07 3.21556e+07 3.1824e+07 3.13798e+07 3.08004e+07
          3.0068e+07 2.91777e+07 2.81549e+07 2.65736e+07 2.2e+07 2.65736e+07 2.81549e+07 2.91777e+07 3.0068e+07 3.08004e+07 3.13798e+07 3.1824e+07
          3.21556e+07 3.23977e+07 3.2571e+07 3.2693e+07 3.27774e+07 3.28351e+07 3.28741e+07 3.29001e+07 3.29173e+07 3.29285e+07 3.29359e+07 3.29406e+07
          3.29437e+07 3.29457e+07 3.29471e+07 3.29481e+07 3.29488e+07 3.29496e+07 3.29506e+07 3.29519e+07 3.29539e+07 3.2957e+07 3.29619e+07 3.29695e+07
          3.29814e+07 3.29999e+07 3.30285e+07 3.30722e+07 3.31387e+07 3.32387e+07 3.33874e+07 3.36054e+07 3.392e+07 3.43654e+07 3.4982e+07 3.58127e+07
          3.68974e+07 3.82628e+07 3.99117e+07 4.18166e+07 4.39047e+07 4.6157e+07 4.91397e+07
        </DataArray>
        <DataArray type="Float32" Name="pressure_g" NumberOfComponents="1" format="ascii">
          4.95e+07 4.61789e+07 4.95e+07 4.61677e+07 4.40187e+07 4.40087e+07 4.19172e+07 4.1907e+07 4.00143e+07 4.00041e+07 3.83651e+07 3.83548e+07
          3.69997e+07 3.69895e+07 3.5915e+07 3.59048e+07 3.50842e+07 3.5074e+07 3.44677e+07 3.44575e+07 3.40222e+07 3.4012e+07 3.37076e+07 3.36974e+07
          3.34896e+07 3.34794e+07 3.3341e+07 3.33307e+07 3.3241e+07 3.32308e+07 3.31745e+07 3.31643e+07 3.31307e+07 3.31205e+07 3.31022e+07 3.30919e+07
          3.30837e+07 3.30734e+07 3.30718e+07 3.30615e+07 3.30641e+07 3.30539e+07 3.30593e+07 3.3049e+07 3.30562e+07 3.30459e+07 3.30541e+07 3.30439e+07
          3.30528e+07 3.30426e+07 3.30519e+07 3.30416e+07 3.30511e+07 3.30409e+07 3.30503e+07 3.30401e+07 3.30493e+07 3.30391e+07 3.3048e+07 3.30378e+07
          3.3046e+07 3.30357e+07 3.30429e+07 3.30327e+07 3.30381e+07 3.30279e+07 3.30308e+07 3.30206e+07 3.30195e+07 3.30093e+07 3.30023e+07 3.29921e+07
          3.29763e+07 3.29661e+07 3.29373e+07 3.29271e+07 3.28796e+07 3.28694e+07 3.27952e+07 3.2785e+07 3.26733e+07 3.2663e+07 3.25e+07 3.24897e+07
          3.22578e+07 3.22476e+07 3.19262e+07 3.1916e+07 3.1482e+07 3.14718e+07 3.09026e+07 3.08924e+07 3.01702e+07 3.016e+07 2.92799e+07 2.92697e+07