<?xml version="1.0"?>
<VTKFile type="UnstructuredGrid" version="0.1" byte_order="LittleEndian">
  <UnstructuredGrid>
    <Piece NumberOfCells="1000" NumberOfPoints="1111">
      <PointData Scalars="pressure_water">
        <DataArray type="Float32" Name="pressure_water" NumberOfComponents="1" format="ascii">
          4.95e+07 4.85414e+07 4.95e+07 4.85208e+07 4.77345e+07 4.7714e+07 4.71115e+07 4.70991e+07 4.65527e+07 4.65411e+07 4.60052e+07 4.59935e+07
          4.54593e+07 4.54477e+07 4.49137e+07 4.49021e+07 4.43681e+07 4.43564e+07 4.38224e+07 4.38108e+07 4.32767e+07 4.32651e+07 4.2731e+07 4.27194e+07
          4.21853e+07 4.21736e+07 4.16395e+07 4.16279e+07 4.10937e+07 4.10821e+07 4.0548e+07 4.05363e+07 4.00022e+07 3.99905e+07 3.94564e+07 3.94448e+07
          3.89107e+07 3.8899e+07 3.83649e+07 3.83533e+07 3.78192e+07 3.78076e+07 3.72735e+07 3.72619e+07 3.67279e+07 3.67162e+07 3.61822e+07 3.61706e+07
          3.56367e+07 3.5625e+07 3.50911e+07 3.50795e+07 3.45457e+07 3.4534e+07 3.40002e+07 3.39886e+07 3.34549e+07 3.34433e+07 3.29096e+07 3.2898e+07
          3.23644e+07 3.23528e+07 3.18193e+07 3.18077e+07 3.12743e+07 3.12627e+07 3.07294e+07 3.07177e+07 3.01846e+07 3.01729e+07 2.96398e+07 2.96282e+07
          2.90952e+07 2.90836e+07 2.85508e+07 2.85391e+07 2.80054e+07 2.79938e+07 2.74562e+07 2.74445e+07 2.69025e+07 2.68908e+07 2.63461e+07 2.63344e+07
          2.57898e+07 2.57781e+07 2.52373e+07 2.52255e+07 2.46937e+07 2.46819e+07 2.41657e+07 2.41539e+07 2.36625e+07 2.36507e+07 2.31949e+07 2.3183e+07
          2.27736e+07 2.27617e+07 2.24044e+07 2.23925e+07 2.20775e+07 2.20655e+07 2.20779e+07 2.20659e+07 2.24273e+07 2.24155e+07 2.28253e+07 2.28135e+07
          2.32767e+07 2.32649e+07 2.37718e+07 2.376e+07 2.42984e+07 2.42866e+07 2.48458e+07 2.4834e+07 2.54055e+07 2.53938e+07 2.59714e+07 2.59597e+07
          2.65388e+07 2.65271e+07 2.71044e+07 2.70927e+07 2.76659e+07 2.76542e+07 2.82222e+07 2.82105e+07 2.8775e+07 2.87633e+07 2.93278e+07 2.93161e+07
          2.98807e+07 2.98691e+07 3.04337e+07 3.04221e+07 3.09869e+07 3.09753e+07 3.15402e+07 3.15285e+07 3.20935e+07 3.20819e+07 3.2647e+07 3.26353e+07
          3.32005e+07 3.31889e+07 3.37541e+07 3.37425e+07 3.43078e+07 3.42962e+07 3.48616e+07 3.48499e+07 3.54154e+07 3.54037e+07 3.59692e+07 3.59576e+07
          3.65232e+07 3.65115e+07 3.70771e+07 3.70655e+07 3.76311e+07 3.76195e+07 3.81852e+07 3.81735e+07 3.87392e+07 3.87276e+07 3.92933e+07 3.92816e+07
          3.98474e+07 3.98357e+07 4.04015e+07 4.03898e+07 4.09556e+07 4.09439e+07 4.15097e+07 4.1498e+07 4.20638e+07 4.20521e+07 4.26179e+07 4.26062e+07
          4.31719e+07 4.31603e+07 4.37259e+07 4.37143e+07 4.42799e+07 4.42683e+07 4.48339e+07 4.48222e+07 4.53879e+07 4.53762e+07 4.59421e+07 4.59304e+07
          4.64981e+07 4.64865e+07 4.70663e+07 4.70539e+07 4.77017e+07 4.76812e+07 4.85252e+07 4.85047e+07 4.95e+07 4.95e+07 4.95e+07 4.85001e+07
          4.76987e+07 4.70875e+07 4.65294e+07 4.59819e+07 4.5436e+07 4.48904e+07 4.43448e+07 4.37991e+07 4.32534e+07 4.27077e+07 4.2162e+07 4.16162e+07
          4.10704e+07 4.05247e+07 3.99789e+07 3.94331e+07 3.88874e+07 3.83416e+07 3.77959e+07 3.72502e+07 3.67046e+07 3.61589e+07 3.56134e+07 3.50678e+07
          3.45224e+07 3.3977e+07 3.34316e+07 3.28864e+07 3.23412e+07 3.17961e+07 3.1251e+07 3.07061e+07 3.01613e+07 2.96166e+07 2.9072e+07 2.85275e+07
          2.79822e+07 2.74328e+07 2.68791e+07 2.63227e+07 2.57663e+07 2.52138e+07 2.46701e+07 2.41421e+07 2.36388e+07 2.31711e+07 2.27498e+07 2.23806e+07
          2.20531e+07 2.20535e+07 2.24035e+07 2.28016e+07 2.3253e+07 2.37481e+07 2.42748e+07 2.48222e+07 2.5382e+07 2.59479e+07 2.65154e+07 2.7081e+07
          2.76426e+07 2.81989e+07 2.87517e+07 2.93045e+07 2.98574e+07 3.04105e+07 3.09636e+07 3.15169e+07 3.20703e+07 3.26237e+07 3.31772e+07 3.37308e+07
          3.42845e+07 3.48383e+07 3.53921e+07 3.5946e+07 3.64999e+07 3.70538e+07 3.76078e+07 3.81619e+07 3.87159e+07 3.927e+07 3.98241e+07 4.03782e+07
          4.09323e+07 4.14864e+07 4.20405e+07 4.25945e+07 4.31486e+07 4.37026e+07 4.42566e+07 4.48106e+07 4.53646e+07 4.59188e+07 4.64749e+07 4.70422e+07
          4.76655e+07 4.8484e+07 4.95e+07 4.95e+07 4.84796e+07 4.76859e+07 4.70759e+07 4.65178e+07 4.59702e+07 4.54244e+07 4.48787e+07 4.43331e+07
          4.37875e+07 4.32418e+07 4.2696e+07 4.21503e+07 4.16046e+07 4.10588e+07 4.0513e+07 3.99672e+07 3.94215e+07 3.88757e+07 3.833e+07 3.77843e+07
          3.72386e+07 3.66929e+07 3.61473e+07 3.56017e+07 3.50562e+07 3.45107e+07 3.39653e+07 3.342e+07 3.28747e+07 3.23295e+07 3.17844e+07 3.12394e+07
          3.06945e+07 3.01497e+07 2.9605e+07 2.90604e+07 2.85159e+07 2.79705e+07 2.74212e+07 2.68674e+07 2.6311e+07 2.57546e+07 2.5202e+07 2.46583e+07
          2.41302e+07 2.36269e+07 2.31592e+07 2.27378e+07 2.23687e+07 2.20403e+07 2.20407e+07 2.23916e+07 2.27896e+07 2.3241e+07 2.37362e+07 2.4263e+07
          2.48104e+07 2.53702e+07 2.59362e+07 2.65037e+07 2.70693e+07 2.76309e+07 2.81873e+07 2.87401e+07 2.92929e+07 2.98458e+07 3.03989e+07 3.0952e+07
          3.15053e+07 3.20586e+07 3.26121e+07 3.31656e+07 3.37192e+07 3.42729e+07 3.48266e+07 3.53805e+07 3.59343e+07 3.64882e+07 3.70422e+07 3.75962e+07
          3.81502e+07 3.87043e+07 3.92584e+07 3.98124e+07 4.03665e+07 4.09206e+07 4.14747e+07 4.20288e+07 4.25829e+07 4.31369e+07 4.3691e+07 4.4245e+07
          4.47989e+07 4.53529e+07 4.59071e+07 4.64633e+07 4.70307e+07 4.76526e+07 4.84634e+07 4.95e+07 4.95e+07 4.84596e+07 4.76735e+07 4.70644e+07
          4.65062e+07 4.59586e+07 4.54127e+07 4.48671e+07 4.43215e+07 4.37758e+07 4.32301e+07 4.26844e+07 4.21387e+07 4.15929e+07 4.10471e+07 4.05014e+07
          3.99556e+07 3.94098e+07 3.88641e+07 3.83183e+07 3.77726e+07 3.72269e+07 3.66813e+07 3.61357e+07 3.55901e+07 3.50446e+07 3.44991e+07 3.39537e+07
          3.34083e+07 3.28631e+07 3.23179e+07 3.17728e+07 3.12278e+07 3.06828e+07 3.0138e+07 2.95933e+07 2.90487e+07 2.85043e+07 2.79589e+07 2.74095e+07
          2.68557e+07 2.62992e+07 2.57428e+07 2.51902e+07 2.46464e+07 2.41184e+07 2.3615e+07 2.31472e+07 2.27258e+07 2.23567e+07 2.20272e+07 2.20275e+07
          2.23796e+07 2.27776e+07 2.3229e+07 2.37243e+07 2.42511e+07 2.47986e+07 2.53584e+07 2.59244e+07 2.64919e+07 2.70576e+07 2.76192e+07 2.81756e+07
          2.87284e+07 2.92812e+07 2.98342e+07 3.03872e+07 3.09404e+07 3.14936e+07 3.2047e+07 3.26004e+07 3.3154e+07 3.37076e+07 3.42613e+07 3.4815e+07
          3.53688e+07 3.59227e+07 3.64766e+07 3.70306e+07 3.75846e+07 3.81386e+07 3.86926e+07 3.92467e+07 3.98008e+07 4.03549e+07 4.0909e+07 4.14631e+07
          4.20172e+07 4.25712e+07 4.31253e+07 4.36793e+07 4.42333e+07 4.47873e+07 4.53412e+07 4.58955e+07 4.64517e+07 4.70191e+07 4.76401e+07 4.84433e+07
          4.95e+07 4.95e+07 4.84408e+07 4.76614e+07 4.70529e+07 4.64946e+07 4.59469e+07 4.54011e+07 4.48554e+07 4.43098e+07 4.37641e+07 4.32185e+07
          4.26727e+07 4.2127e+07 4.15813e+07 4.10355e+07 4.04897e+07 3.99439e+07 3.93982e+07 3.88524e+07 3.83067e+07 3.7761e+07 3.72153e+07 3.66696e+07
          3.6124e+07 3.55784e+07 3.50329e+07 3.44875e+07 3.39421e+07 3.33967e+07 3.28514e+07 3.23063e+07 3.17612e+07 3.12161e+07 3.06712e+07 3.01264e+07
          2.95817e+07 2.90371e+07 2.84926e+07 2.79472e+07 2.73978e+07 2.6844e+07 2.62875e+07 2.5731e+07 2.51784e+07 2.46346e+07 2.41064e+07 2.3603e+07
          2.31351e+07 2.27137e+07 2.23447e+07 2.20137e+07 2.20139e+07 2.23675e+07 2.27655e+07 2.3217e+07 2.37123e+07 2.42392e+07 2.47867e+07 2.53466e+07
          2.59127e+07 2.64802e+07 2.7046e+07 2.76076e+07 2.8164e+07 2.87168e+07 2.92696e+07 2.98225e+07 3.03756e+07 3.09287e+07 3.1482e+07 3.20354e+07
          3.25888e+07 3.31423e+07 3.36959e+07 3.42496e+07 3.48034e+07 3.53572e+07 3.5911e+07 3.6465e+07 3.70189e+07 3.75729e+07 3.81269e+07 3.8681e+07
          3.92351e+07 3.97891e+07 4.03432e+07 4.08973e+07 4.14514e+07 4.20055e+07 4.25596e+07 4.31136e+07 4.36677e+07 4.42217e+07 4.47756e+07 4.53296e+07
          4.58838e+07 4.64401e+07 4.70076e+07 4.7628e+07 4.84243e+07 4.95e+07 4.94689e+07 4.84237e+07 4.76497e+07 4.70414e+07 4.6483e+07 4.59353e+07
          4.53894e+07 4.48438e+07 4.42981e+07 4.37525e+07 4.32068e+07 4.26611e+07 4.21154e+07 4.15696e+07 4.10238e+07 4.04781e+07 3.99323e+07 3.93865e+07
          3.88408e+07 3.8295e+07 3.77493e+07 3.72036e+07 3.6658e+07 3.61124e+07 3.55668e+07 3.50213e+07 3.44758e+07 3.39304e+07 3.33851e+07 3.28398e+07
          3.22946e+07 3.17495e+07 3.12045e+07 3.06596e+07 3.01148e+07 2.95701e+07 2.90255e+07 2.8481e+07 2.79356e+07 2.73861e+07 2.68323e+07 2.62757e+07
          2.57192e+07 2.51665e+07 2.46227e+07 2.40945e+07 2.35909e+07 2.3123e+07 2.27016e+07 2.23326e+07 2.2e+07 2.2e+07 2.23554e+07 2.27533e+07
          2.32049e+07 2.37003e+07 2.42272e+07 2.47749e+07 2.53348e+07 2.59009e+07 2.64685e+07 2.70343e+07 2.75959e+07 2.81523e+07 2.87052e+07 2.9258e+07
          2.98109e+07 3.0364e+07 3.09171e+07 3.14704e+07 3.20237e+07 3.25772e+07 3.31307e+07 3.36843e+07 3.4238e+07 3.47917e+07 3.53455e+07 3.58994e+07
          3.64533e+07 3.70073e+07 3.75613e+07 3.81153e+07 3.86693e+07 3.92234e+07 3.97775e+07 4.03316e+07 4.08857e+07 4.14398e+07 4.19939e+07 4.25479e+07
          4.3102e+07 4.3656e+07 4.421e+07 4.4764e+07 4.53179e+07 4.58722e+07 4.64285e+07 4.69961e+07 4.76162e+07 4.8407e+07 4.94687e+07 4.94401e+07
          4.84085e+07 4.76381e+07 4.70299e+07 4.64714e+07 4.59236e+07 4.53777e+07 4.48321e+07 4.42865e+07 4.37408e+07 4.31951e+07 4.26494e+07 4.21037e+07
          4.15579e+07 4.10122e+07 4.04664e+07 3.99206e+07 3.93749e+07 3.88291e+07 3.82834e+07 3.77377e+07 3.7192e+07 3.66464e+07 3.61007e+07 3.55552e+07
          3.50096e+07 3.44642e+07 3.39188e+07 3.33734e+07 3.28282e+07 3.2283e+07 3.17379e+07 3.11929e+07 3.0648e+07 3.01031e+07 2.95584e+07 2.90138e+07
          2.84694e+07 2.79239e+07 2.73745e+07 2.68206e+07 2.6264e+07 2.57074e+07 2.51547e+07 2.46108e+07 2.40825e+07 2.35788e+07 2.31108e+07 2.26894e+07
          2.23204e+07 2.2e+07 2.2e+07 2.23432e+07 2.27411e+07 2.31927e+07 2.36883e+07 2.42153e+07 2.4763e+07 2.5323e+07 2.58891e+07 2.64567e+07
          2.70226e+07 2.75842e+07 2.81407e+07 2.86936e+07 2.92464e+07 2.97993e+07 3.03523e+07 3.09055e+07 3.14587e+07 3.20121e+07 3.25655e+07 3.31191e+07
          3.36727e+07 3.42263e+07 3.47801e+07 3.53339e+07 3.58878e+07 3.64417e+07 3.69956e+07 3.75496e+07 3.81036e+07 3.86577e+07 3.92118e+07 3.97658e+07
          4.03199e+07 4.0874e+07 4.14281e+07 4.19822e+07 4.25363e+07 4.30903e+07 4.36443e+07 4.41983e+07 4.47523e+07 4.53063e+07 4.58605e+07 4.64168e+07
          4.69846e+07 4.76046e+07 4.83915e+07 4.94398e+07 4.94136e+07 4.83946e+07 4.76266e+07 4.70183e+07 4.64598e+07 4.5912e+07 4.53661e+07 4.48205e+07
          4.42748e+07 4.37292e+07 4.31835e+07 4.26378e+07 4.2092e+07 4.15463e+07 4.10005e+07 4.04548e+07 3.9909e+07 3.93632e+07 3.88175e+07 3.82718e+07
          3.7726e+07 3.71804e+07 3.66347e+07 3.60891e+07 3.55435e+07 3.4998e+07 3.44525e+07 3.39071e+07 3.33618e+07 3.28165e+07 3.22714e+07 3.17262e+07
          3.11812e+07 3.06363e+07 3.00915e+07 2.95468e+07 2.90022e+07 2.84577e+07 2.79123e+07 2.73628e+07 2.68088e+07 2.62522e+07 2.56956e+07 2.51428e+07
          2.45988e+07 2.40704e+07 2.35667e+07 2.30986e+07 2.26771e+07 2.23083e+07 2.2e+07 2.2e+07 2.23309e+07 2.27288e+07 2.31805e+07 2.36762e+07
          2.42033e+07 2.47511e+07 2.53111e+07 2.58773e+07 2.6445e+07 2.70109e+07 2.75726e+07 2.81291e+07 2.86819e+07 2.92347e+07 2.97877e+07 3.03407e+07
          3.08938e+07 3.14471e+07 3.20004e+07 3.25539e+07 3.31074e+07 3.3661e+07 3.42147e+07 3.47684e+07 3.53223e+07 3.58761e+07 3.643e+07 3.6984e+07
          3.7538e+07 3.8092e+07 3.8646e+07 3.92001e+07 3.97542e+07 4.03083e+07 4.08624e+07 4.14165e+07 4.19706e+07 4.25246e+07 4.30787e+07 4.36327e+07
          4.41867e+07 4.47406e+07 4.52946e+07 4.58489e+07 4.64052e+07 4.69731e+07 4.75931e+07 4.83776e+07 4.94133e+07 4.93894e+07 4.83818e+07 4.7615e+07
          4.70067e+07 4.64481e+07 4.59003e+07 4.53544e+07 4.48088e+07 4.42632e+07 4.37175e+07 4.31718e+07 4.26261e+07 4.20804e+07 4.15346e+07 4.09889e+07
          4.04431e+07 3.98974e+07 3.93516e+07 3.88058e+07 3.82601e+07 3.77144e+07 3.71687e+07 3.66231e+07 3.60775e+07 3.55319e+07 3.49864e+07 3.44409e+07
          3.38955e+07 3.33502e+07 3.28049e+07 3.22597e+07 3.17146e+07 3.11696e+07 3.06247e+07 3.00799e+07 2.95352e+07 2.89906e+07 2.84461e+07 2.79006e+07
          2.73511e+07 2.67971e+07 2.62404e+07 2.56838e+07 2.51309e+07 2.45869e+07 2.40584e+07 2.35545e+07 2.30863e+07 2.26647e+07 2.2296e+07 2.2e+07
          2.2e+07 2.23186e+07 2.27164e+07 2.31683e+07 2.3664e+07 2.41913e+07 2.47391e+07 2.52993e+07 2.58655e+07 2.64332e+07 2.69991e+07 2.75609e+07
          2.81174e+07 2.86703e+07 2.92231e+07 2.9776e+07 3.03291e+07 3.08822e+07 3.14355e+07 3.19888e+07 3.25423e+07 3.30958e+07 3.36494e+07 3.42031e+07
          3.47568e+07 3.53106e+07 3.58645e+07 3.64184e+07 3.69723e+07 3.75263e+07 3.80803e+07 3.86344e+07 3.91885e+07 3.97425e+07 4.02966e+07 4.08507e+07
          4.14048e+07 4.19589e+07 4.2513e+07 4.3067e+07 4.3621e+07 4.4175e+07 4.4729e+07 4.5283e+07 4.58372e+07 4.63936e+07 4.69615e+07 4.75816e+07
          4.83647e+07 4.9389e+07 4.93675e+07 4.837e+07 4.76035e+07 4.69951e+07 4.64365e+07 4.58887e+07 4.53428e+07 4.47971e+07 4.42515e+07 4.37059e+07
          4.31602e+07 4.26145e+07 4.20687e+07 4.1523e+07 4.09772e+07 4.04315e+07 3.98857e+07 3.93399e+07 3.87942e+07 3.82485e+07 3.77028e+07 3.71571e+07
          3.66114e+07 3.60658e+07 3.55202e+07 3.49747e+07 3.44293e+07 3.38839e+07 3.33385e+07 3.27933e+07 3.22481e+07 3.1703e+07 3.1158e+07 3.06131e+07
          3.00682e+07 2.95235e+07 2.8979e+07 2.84345e+07 2.7889e+07 2.73394e+07 2.67854e+07 2.62287e+07 2.5672e+07 2.5119e+07 2.45749e+07 2.40463e+07
          2.35423e+07 2.3074e+07 2.26523e+07 2.22841e+07 2.2e+07 2.2e+07 2.23065e+07 2.2704e+07 2.3156e+07 2.36519e+07 2.41792e+07 2.47272e+07
          2.52874e+07 2.58537e+07 2.64215e+07 2.69874e+07 2.75492e+07 2.81058e+07 2.86587e+07 2.92115e+07 2.97644e+07 3.03174e+07 3.08706e+07 3.14238e+07
          3.19772e+07 3.25306e+07 3.30841e+07 3.36377e+07 3.41914e+07 3.47452e+07 3.5299e+07 3.58528e+07 3.64067e+07 3.69607e+07 3.75147e+07 3.80687e+07
          3.86228e+07 3.91768e+07 3.97309e+07 4.0285e+07 4.08391e+07 4.13932e+07 4.19472e+07 4.25013e+07 4.30554e+07 4.36094e+07 4.41634e+07 4.47173e+07
          4.52713e+07 4.58256e+07 4.63819e+07 4.69498e+07 4.757e+07 4.83528e+07 4.93671e+07
        </DataArray>
        <DataArray type="Float32" Name="pressure_oil" NumberOfComponents="1" format="ascii">
          4.95e+07 4.85414e+07 4.95e+07 4.85208e+07 4.77345e+07 4.7714e+07 4.71115e+07 4.70991e+07 4.65527e+07 4.65411e+07 4.60052e+07 4.59935e+07
          4.54593e+07 4.54477e+07 4.49137e+07 4.49021e+07 4.43681e+07 4.43564e+07 4.38224e+07 4.38108e+07 4.32767e+07 4.32651e+07 4.2731e+07 4.27194e+07
          4.21853e+07 4.21736e+07 4.16395e+07 4.16279e+07 4.10937e+07 4.10821e+07 4.0548e+07 4.05363e+07 4.00022e+07 3.99905e+07 3.94564e+07 3.94448e+07
          3.89107e+07 3.8899e+07 3.83649e+07 3.83533e+07 3.78192e+07 3.78076e+07 3.72735e+07 3.72619e+07 3.67279e+07 3.67162e+07 3.61822e+07 3.61706e+07
          3.56367e+07 3.5625e+07 3.50911e+07 3.50795e+07 3.45457e+07 3.4534e+07 3.40002e+07 3.39886e+07 3.34549e+07 3.34433e+07 3.29096e+07 3.2898e+07
          3.23644e+07 3.23528e+07 3.18193e+07 3.18077e+07 3.12743e+07 3.12627e+07 3.07294e+07 3.07177e+07 3.01846e+07 3.01729e+07 2.96398e+07 2.96282e+07
          2.90952e+07 2.90836e+07 2.85508e+07 2.85391e+07 2.80054e+07 2.79938e+07 2.74562e+07 2.74445e+07 2.69025e+07 2.68908e+07 2.63461e+07 2.63344e+07
          2.57898e+07 2.57781e+07 2.52373e+07 2.52255e+07 2.46937e+07 2.46819e+07 2.41657e+07 2.41539e+07 2.36625e+07 2.36507e+07 2.31949e+07 2.3183e+07
          2.27736e+07 2.27617e+07 2.24044e+07 2.23925e+07 2.20775e+07 2.20655e+07 2.20779e+07 2.20659e+07 2.24273e+07 2.24155e+07 2.28253e+07 2.28135e+07
          2.32767e+07 2.32649e+07 2.37718e+07 2.376e+07 2.42984e+07 2.42866e+07 2.48458e+07 2.4834e+07 2.54055e+07 2.53938e+07 2.59714e+07 2.59597e+07
          2.65388e+07 2.65271e+07 2.71044e+07 2.70927e+07 2.76659e+07 2.76542e+07 2.82222e+07 2.82105e+07 2.8775e+07 2.87633e+07 2.93278e+07 2.93161e+07
          2.98807e+07 2.98691e+07 3.04337e+07 3.04221e+07 3.09869e+07 3.09753e+07 3.15402e+07 3.15285e+07 3.20935e+07 3.20819e+07 3.2647e+07 3.26353e+07
          3.32005e+07 3.31889e+07 3.37541e+07 3.37425e+07 3.43078e+07 3.42962e+07 3.48616e+07 3.48499e+07 3.54154e+07 3.54037e+07 3.59692e+07 3.59576e+07
          3.65232e+07 3.65115e+07 3.70771e+07 3.70655e+07 3.76311e+07 3.76195e+07 3.81852e+07 3.81735e+07 3.87392e+07 3.87276e+07 3.92933e+07 3.92816e+07
          3.98474e+07 3.98357e+07 4.04015e+07 4.03898e+07 4.09556e+07 4.09439e+07 4.15097e+07 4.1498e+07 4.20638e+07 4.20521e+07 4.26179e+07 4.26062e+07
          4.31719e+07 4.31603e+07 4.37259e+07 4.37143e+07 4.42799e+07 4.42683e+07 4.48339e+07 4.48222e+07 4.53879e+07 4.53762e+07 4.59421e+07 4.59304e+07
          4.64981e+07 4.64865e+07 4.70663e+07 4.70539e+07 4.77017e+07 4.76812e+07 4.85252e+07 4.85047e+07 4.95e+07 4.95e+07 4.95e+07 4.85001e+07
          4.76987e+07 4.70875e+07 4.65294e+07 4.59819e+07 4.5436e+07 4.48904e+07 4.43448e+07 4.37991e+07 4.32534e+07 4.27077e+07 4.2162e+07 4.16162e+07
          4.10704e+07 4.05247e+07 3.99789e+07 3.94331e+07 3.88874e+07 3.83416e+07 3.77959e+07 3.72502e+07 3.67046e+07 3.61589e+07 3.56134e+07 3.50678e+07
          3.45224e+07 3.3977e+07 3.34316e+07 3.28864e+07 3.23412e+07 3.17961e+07 3.1251e+07 3.07061e+07 3.01613e+07 2.96166e+07 2.9072e+07 2.85275e+07
          2.79822e+07 2.74328e+07 2.68791e+07 2.63227e+07 2.57663e+07 2.52138e+07 2.46701e+07 2.41421e+07 2.36388e+07 2.31711e+07 2.27498e+07 2.23806e+07
          2.20531e+07 2.20535e+07 2.24035e+07 2.28016e+07 2.3253e+07 2.37481e+07 2.42748e+07 2.48222e+07 2.5382e+07 2.59479e+07 2.65154e+07 2.7081e+07
          2.76426e+07 2.81989e+07 2.87517e+07 2.93045e+07 2.98574e+07 3.04105e+07 3.09636e+07 3.15169e+07 3.20703e+07 3.26237e+07 3.31772e+07 3.37308e+07
          3.42845e+07 3.48383e+07 3.53921e+07 3.5946e+07 3.64999e+07 3.70538e+07 3.76078e+07 3.81619e+07 3.87159e+07 3.927e+07 3.98241e+07 4.03782e+07
          4.09323e+07 4.14864e+07 4.20405e+07 4.25945e+07 4.31486e+07 4.37026e+07 4.42566e+07 4.48106e+07 4.53646e+07 4.59188e+07 4.64749e+07 4.70422e+07
          4.76655e+07 4.8484e+07 4.95e+07 4.95e+07 4.84796e+07 4.76859e+07 4.70759e+07 4.65178e+07 4.59702e+07 4.54244e+07 4.48787e+07 4.43331e+07
          4.37875e+07 4.32418e+07 4.2696e+07 4.21503e+07 4.16046e+07 4.10588e+07 4.0513e+07 3.99672e+07 3.94215e+07 3.88757e+07 3.833e+07 3.77843e+07
          3.72386e+07 3.66929e+07 3.61473e+07 3.56017e+07 3.50562e+07 3.45107e+07 3.39653e+07 3.342e+07 3.28747e+07 3.23295e+07 3.17844e+07 3.12394e+07
          3.06945e+07 3.01497e+07 2.9605e+07 2.90604e+07 2.85159e+07 2.79705e+07 2.74212e+07 2.68674e+07 2.6311e+07 2.57546e+07 2.5202e+07 2.46583e+07
          2.41302e+07 2.36269e+07 2.31592e+07 2.27378e+07 2.23687e+07 2.20403e+07 2.20407e+07 2.23916e+07 2.27896e+07 2.3241e+07 2.37362e+07 2.4263e+07
          2.48104e+07 2.53702e+07 2.59362e+07 2.65037e+07 2.70693e+07 2.76309e+07 2.81873e+07 2.87401e+07 2.92929e+07 2.98458e+07 3.03989e+07 3.0952e+07
          3.15053e+07 3.20586e+07 3.26121e+07 3.31656e+07 3.37192e+07 3.42729e+07 3.48266e+07 3.53805e+07 3.59343e+07 3.64882e+07 3.70422e+07 3.75962e+07
          3.81502e+07 3.87043e+07 3.92584e+07 3.98124e+07 4.03665e+07 4.09206e+07 4.14747e+07 4.20288e+07 4.25829e+07 4.31369e+07 4.3691e+07 4.4245e+07
          4.47989e+07 4.53529e+07 4.59071e+07 4.64633e+07 4.70307e+07 4.76526e+07 4.84634e+07 4.95e+07 4.95e+07 4.84596e+07 4.76735e+07 4.70644e+07
          4.65062e+07 4.59586e+07 4.54127e+07 4.48671e+07 4.43215e+07 4.37758e+07 4.32301e+07 4.26844e+07 4.21387e+07 4.15929e+07 4.10471e+07 4.05014e+07
          3.99556e+07 3.94098e+07 3.88641e+07 3.83183e+07 3.77726e+07 3.72269e+07 3.66813e+07 3.61357e+07 3.55901e+07 3.50446e+07 3.44991e+07 3.39537e+07
          3.34083e+07 3.28631e+07 3.23179e+07 3.17728e+07 3.12278e+07 3.06828e+07 3.0138e+07 2.95933e+07 2.90487e+07 2.85043e+07 2.79589e+07 2.74095e+07
          2.68557e+07 2.62992e+07 2.57428e+07 2.51902e+07 2.46464e+07 2.41184e+07 2.3615e+07 2.31472e+07 2.27258e+07 2.23567e+07 2.20272e+07 2.20275e+07
          2.23796e+07 2.27776e+07 2.3229e+07 2.37243e+07 2.42511e+07 2.47986e+07 2.53584e+07 2.59244e+07 2.64919e+07 2.70576e+07 2.76192e+07 2.81756e+07
          2.87284e+07 2.92812e+07 2.98342e+07 3.03872e+07 3.09404e+07 3.14936e+07 3.2047e+07 3.26004e+07 3.3154e+07 3.37076e+07 3.42613e+07 3.4815e+07
          3.53688e+07 3.59227e+07 3.64766e+07 3.70306e+07 3.75846e+07 3.81386e+07 3.86926e+07 3.92467e+07 3.98008e+07 4.03549e+07 4.0909e+07 4.14631e+07
          4.20172e+07 4.25712e+07 4.31253e+07 4.36793e+07 4.42333e+07 4.47873e+07 4.53412e+07 4.58955e+07 4.64517e+07 4.70191e+07 4.76401e+07 4.84433e+07
          4.95e+07 4.95e+07 4.84408e+07 4.76614e+07 4.70529e+07 4.64946e+07 4.59469e+07 4.54011e+07 4.48554e+07 4.43098e+07 4.37641e+07 4.32185e+07
          4.26727e+07 4.2127e+07 4.15813e+07 4.10355e+07 4.04897e+07 3.99439e+07 3.93982e+07 3.88524e+07 3.83067e+07 3.7761e+07 3.72153e+07 3.66696e+07
          3.6124e+07 3.55784e+07 3.50329e+07 3.44875e+07 3.39421e+07 3.33967e+07 3.28514e+07 3.23063e+07 3.17612e+07 3.12161e+07 3.06712e+07 3.01264e+07
          2.95817e+07 2.90371e+07 2.84926e+07 2.79472e+07 2.73978e+07 2.6844e+07 2.62875e+07 2.5731e+07 2.51784e+07 2.46346e+07 2.41064e+07 2.3603e+07
          2.31351e+07 2.27137e+07 2.23447e+07 2.20137e+07 2.20139e+07 2.23675e+07 2.27655e+07 2.3217e+07 2.37123e+07 2.42392e+07 2.47867e+07 2.53466e+07
          2.59127e+07 2.64802e+07 2.7046e+07 2.76076e+07 2.8164e+07 2.87168e+07 2.92696e+07 2.98225e+07 3.03756e+07 3.09287e+07 3.1482e+07 3.20354e+07
          3.25888e+07 3.31423e+07 3.36959e+07 3.42496e+07 3.48034e+07 3.53572e+07 3.5911e+07 3.6465e+07 3.70189e+07 3.75729e+07 3.81269e+07 3.8681e+07
          3.92351e+07 3.97891e+07 4.03432e+07 4.08973e+07 4.14514e+07 4.20055e+07 4.25596e+07 4.31136e+07 4.36677e+07 4.42217e+07 4.47756e+07 4.53296e+07
          4.58838e+07 4.64401e+07 4.70076e+07 4.7628e+07 4.84243e+07 4.95e+07 4.94689e+07 4.84237e+07 4.76497e+07 4.70414e+07 4.6483e+07 4.59353e+07
          4.53894e+07 4.48438e+07 4.42981e+07 4.37525e+07 4.32068e+07 4.26611e+07 4.21154e+07 4.15696e+07 4.10238e+07 4.04781e+07 3.99323e+07 3.93865e+07
          3.88408e+07 3.8295e+07 3.77493e+07 3.72036e+07 3.6658e+07 3.61124e+07 3.55668e+07 3.50213e+07 3.44758e+07 3.39304e+07 3.33851e+07 3.28398e+07
          3.22946e+07 3.17495e+07 3.12045e+07 3.06596e+07 3.01148e+07 2.95701e+07 2.90255e+07 2.8481e+07 2.79356e+07 2.73861e+07 2.68323e+07 2.62757e+07
          2.57192e+07 2.51665e+07 2.46227e+07 2.40945e+07 2.35909e+07 2.3123e+07 2.27016e+07 2.23326e+07 2.2e+07 2.2e+07 2.23554e+07 2.27533e+07
          2.32049e+07 2.37003e+07 2.42272e+07 2.47749e+07 2.53348e+07 2.59009e+07 2.64685e+07 2.70343e+07 2.75959e+07 2.81523e+07 2.87052e+07 2.9258e+07
          2.98109e+07 3.0364e+07 3.09171e+07 3.14704e+07 3.20237e+07 3.25772e+07 3.31307e+07 3.36843e+07 3.4238e+07 3.47917e+07 3.53455e+07 3.58994e+07
          3.64533e+07 3.70073e+07 3.75613e+07 3.81153e+07 3.86693e+07 3.92234e+07 3.97775e+07 4.03316e+07 4.08857e+07 4.14398e+07 4.19939e+07 4.25479e+07
          4.3102e+07 4.3656e+07 4.421e+07 4.4764e+07 4.53179e+07 4.58722e+07 4.64285e+07 4.69961e+07 4.76162e+07 4.8407e+07 4.94687e+07 4.94401e+07
          4.84085e+07 4.76381e+07 4.70299e+07 4.64714e+07 4.59236e+07 4.53777e+07 4.48321e+07 4.42865e+07 4.37408e+07 4.31951e+07 4.26494e+07 4.21037e+07
          4.15579e+07 4.10122e+07 4.04664e+07 3.99206e+07 3.93749e+07 3.88291e+07 3.82834e+07 3.77377e+07 3.7192e+07 3.66464e+07 3.61007e+07 3.55552e+07
          3.50096e+07 3.44642e+07 3.39188e+07 3.33734e+07 3.28282e+07 3.2283e+07 3.17379e+07 3.11929e+07 3.0648e+07 3.01031e+07 2.95584e+07 2.90138e+07
          2.84694e+07 2.79239e+07 2.73745e+07 2.68206e+07 2.6264e+07 2.57074e+07 2.51547e+07 2.46108e+07 2.40825e+07 2.35788e+07 2.31108e+07 2.26894e+07
          2.23204e+07 2.2e+07 2.2e+07 2.23432e+07 2.27411e+07 2.31927e+07 2.36883e+07 2.42153e+07 2.4763e+07 2.5323e+07 2.58891e+07 2.64567e+07
          2.70226e+07 2.75842e+07 2.81407e+07 2.86936e+07 2.92464e+07 2.97993e+07 3.03523e+07 3.09055e+07 3.14587e+07 3.20121e+07 3.25655e+07 3.31191e+07
          3.36727e+07 3.42263e+07 3.47801e+07 3.53339e+07 3.58878e+07 3.64417e+07 3.69956e+07 3.75496e+07 3.81036e+07 3.86577e+07 3.92118e+07 3.97658e+07
          4.03199e+07 4.0874e+07 4.14281e+07 4.19822e+07 4.25363e+07 4.30903e+07 4.36443e+07 4.41983e+07 4.47523e+07 4.53063e+07 4.58605e+07 4.64168e+07
          4.69846e+07 4.76046e+07 4.83915e+07 4.94398e+07 4.94136e+07 4.83946e+07 4.76266e+07 4.70183e+07 4.64598e+07 4.5912e+07 4.53661e+07 4.48205e+07
          4.42748e+07 4.37292e+07 4.31835e+07 4.26378e+07 4.2092e+07 4.15463e+07 4.10005e+07 4.04548e+07 3.9909e+07 3.93632e+07 3.88175e+07 3.82718e+07
          3.7726e+07 3.71804e+07 3.66347e+07 3.60891e+07 3.55435e+07 3.4998e+07 3.44525e+07 3.39071e+07 3.33618e+07 3.28165e+07 3.22714e+07 3.17262e+07
          3.11812e+07 3.06363e+07 3.00915e+07 2.95468e+07 2.90022e+07 2.84577e+07 2.79123e+07 2.73628e+07 2.68088e+07 2.62522e+07 2.56956e+07 2.51428e+07
          2.45988e+07 2.40704e+07 2.35667e+07 2.30986e+07 2.26771e+07 2.23083e+07 2.2e+07 2.2e+07 2.23309e+07 2.27288e+07 2.31805e+07 2.36762e+07
          2.42033e+07 2.47511e+07 2.53111e+07 2.58773e+07 2.6445e+07 2.70109e+07 2.75726e+07 2.81291e+07 2.86819e+07 2.92347e+07 2.97877e+07 3.03407e+07
          3.08938e+07 3.14471e+07 3.20004e+07 3.25539e+07 3.31074e+07 3.3661e+07 3.42147e+07 3.47684e+07 3.53223e+07 3.58761e+07 3.643e+07 3.6984e+07
          3.7538e+07 3.8092e+07 3.8646e+07 3.92001e+07 3.97542e+07 4.03083e+07 4.08624e+07 4.14165e+07 4.19706e+07 4.25246e+07 4.30787e+07 4.36327e+07
          4.41867e+07 4.47406e+07 4.52946e+07 4.58489e+07 4.64052e+07 4.69731e+07 4.75931e+07 4.83776e+07 4.94133e+07 4.93894e+07 4.83818e+07 4.7615e+07
          4.70067e+07 4.64481e+07 4.59003e+07 4.53544e+07 4.48088e+07 4.42632e+07 4.37175e+07 4.31718e+07 4.26261e+07 4.20804e+07 4.15346e+07 4.09889e+07
          4.04431e+07 3.98974e+07 3.93516e+07 3.88058e+07 3.82601e+07 3.77144e+07 3.71687e+07 3.66231e+07 3.60775e+07 3.55319e+07 3.49864e+07 3.44409e+07
          3.38955e+07 3.33502e+07 3.28049e+07 3.22597e+07 3.17146e+07 3.11696e+07 3.06247e+07 3.00799e+07 2.95352e+07 2.89906e+07 2.84461e+07 2.79006e+07
          2.73511e+07 2.67971e+07 2.62404e+07 2.56838e+07 2.51309e+07 2.45869e+07 2.40584e+07 2.35545e+07 2.30863e+07 2.26647e+07 2.2296e+07 2.2e+07
          2.2e+07 2.23186e+07 2.27164e+07 2.31683e+07 2.3664e+07 2.41913e+07 2.47391e+07 2.52993e+07 2.58655e+07 2.64332e+07 2.69991e+07 2.75609e+07
          2.81174e+07 2.86703e+07 2.92231e+07 2.9776e+07 3.03291e+07 3.08822e+07 3.14355e+07 3.19888e+07 3.25423e+07 3.30958e+07 3.36494e+07 3.42031e+07
          3.47568e+07 3.53106e+07 3.58645e+07 3.64184e+07 3.69723e+07 3.75263e+07 3.80803e+07 3.86344e+07 3.91885e+07 3.97425e+07 4.02966e+07 4.08507e+07
          4.14048e+07 4.19589e+07 4.2513e+07 4.3067e+07 4.3621e+07 4.4175e+07 4.4729e+07 4.5283e+07 4.58372e+07 4.63936e+07 4.69615e+07 4.75816e+07
          4.83647e+07 4.9389e+07 4.93675e+07 4.837e+07 4.76035e+07 4.69951e+07 4.64365e+07 4.58887e+07 4.53428e+07 4.47971e+07 4.42515e+07 4.37059e+07
          4.31602e+07 4.26145e+07 4.20687e+07 4.1523e+07 4.09772e+07 4.04315e+07 3.98857e+07 3.93399e+07 3.87942e+07 3.82485e+07 3.77028e+07 3.71571e+07
          3.66114e+07 3.60658e+07 3.55202e+07 3.49747e+07 3.44293e+07 3.38839e+07 3.33385e+07 3.27933e+07 3.22481e+07 3.1703e+07 3.1158e+07 3.06131e+07
          3.00682e+07 2.95235e+07 2.8979e+07 2.84345e+07 2.7889e+07 2.73394e+07 2.67854e+07 2.62287e+07 2.5672e+07 2.5119e+07 2.45749e+07 2.40463e+07
          2.35423e+07 2.3074e+07 2.26523e+07 2.22841e+07 2.2e+07 2.2e+07 2.23065e+07 2.2704e+07 2.3156e+07 2.36519e+07 2.41792e+07 2.47272e+07
          2.52874e+07 2.58537e+07 2.64215e+07 2.69874e+07 2.75492e+07 2.81058e+07 2.86587e+07 2.92115e+07 2.97644e+07 3.03174e+07 3.08706e+07 3.14238e+07
          3.19772e+07 3.25306e+07 3.30841e+07 3.36377e+07 3.41914e+07 3.47452e+07 3.5299e+07 3.58528e+07 3.64067e+07 3.69607e+07 3.75147e+07 3.80687e+07
          3.86228e+07 3.91768e+07 3.97309e+07 4.0285e+07 4.08391e+07 4.13932e+07 4.19472e+07 4.25013e+07 4.30554e+07 4.36094e+07 4.41634e+07 4.47173e+07
          4.52713e+07 4.58256e+07 4.63819e+07 4.69498e+07 4.757e+07 4.83528e+07 4.93671e+07
        </DataArray>
        <DataArray type="Float32" Name="pressure_gas" NumberOfComponents="1" format="ascii">
          4.95e+07 4.85414e+07 4.95e+07 4.85208e+07 4.77345e+07 4.7714e+07 4.71115e+07 4.70991e+07 4.65527e+07 4.65411e+07 4.60052e+07 4.59935e+07
          4.54593e+07 4.54477e+07 4.49137e+07 4.49021e+07 4.43681e+07 4.43564e+07 4.38224e+07 4.38108e+07 4.32767e+07 4.32651e+07 4.2731e+07 4.27194e+07
          4.21853e+07 4.21736e+07 4.16395e+07 4.16279e+07 4.10937e+07 4.10821e+07 4.0548e+07 4.05363e+07 4.00022e+07 3.99905e+07 3.94564e+07 3.94448e+07
          3.89107e+07 3.8899e+07 3.83649e+07 3.83533e+07 3.78192e+07 3.78076e+07 3.72735e+07 3.72619e+07 3.67279e+07 3.67162e+07 3.61822e+07 3.61706e+07
          3.56367e+07 3.5625e+07 3.50911e+07 3.50795e+07 3.45457e+07 3.4534e+07 3.40002e+07 3.39886e+07 3.34549e+07 3.34433e+07 3.29096e+07 3.2898e+07
          3.23644e+07 3.23528e+07 3.18193e+07 3.18077e+07 3.12743e+07 3.12627e+07 3.07294e+07 3.07177e+07 3.01846e+07 3.01729e+07 2.96398e+07 2.96282e+07
          2.90952e+07 2.90836e+07 2.85508e+07 2.85391e+07 2.80054e+07 2.79938e+07 2.74562e+07 2.74445e+07 2.69025e+07 2.68908e+07 2.63461e+07 2.63344e+07
          2.57898e+07 2.57781e+07 2.52373e+07 2.52255e+07 2.46937e+07 2.46819e+07 2.41657e+07 2.41539e+07 2.36625e+07 2.36507e+07 2.31949e+07 2.3183e+07