<?xml version="1.0"?>
<VTKFile type="UnstructuredGrid" version="0.1" byte_order="LittleEndian">
  <UnstructuredGrid>
    <Piece NumberOfCells="1000" NumberOfPoints="1111">
      <PointData Scalars="pressure_water">
        <DataArray type="Float32" Name="pressure_water" NumberOfComponents="1" format="ascii">
          4.95e+07 4.85385e+07 4.95e+07 4.85179e+07 4.77193e+07 4.76987e+07 4.70979e+07 4.70858e+07 4.65421e+07 4.65305e+07 4.59965e+07 4.59849e+07
          4.54523e+07 4.54406e+07 4.49082e+07 4.48965e+07 4.43641e+07 4.43524e+07 4.382e+07 4.38083e+07 4.32758e+07 4.32642e+07 4.27317e+07 4.272e+07
          4.21875e+07 4.21758e+07 4.16433e+07 4.16317e+07 4.10992e+07 4.10875e+07 4.0555e+07 4.05434e+07 4.00109e+07 3.99992e+07 3.94668e+07 3.94551e+07
          3.89227e+07 3.89111e+07 3.83787e+07 3.8367e+07 3.78347e+07 3.78231e+07 3.72908e+07 3.72792e+07 3.67469e+07 3.67353e+07 3.62031e+07 3.61915e+07
          3.56594e+07 3.56478e+07 3.51158e+07 3.51042e+07 3.45723e+07 3.45606e+07 3.40288e+07 3.40172e+07 3.34855e+07 3.34739e+07 3.29423e+07 3.29306e+07
          3.23992e+07 3.23875e+07 3.18562e+07 3.18446e+07 3.13134e+07 3.13017e+07 3.07707e+07 3.0759e+07 3.02281e+07 3.02165e+07 2.96857e+07 2.96741e+07
          2.91434e+07 2.91318e+07 2.86014e+07 2.85897e+07 2.80577e+07 2.8046e+07 2.7509e+07 2.74973e+07 2.69538e+07 2.69421e+07 2.63928e+07 2.63811e+07
          2.58278e+07 2.58161e+07 2.52624e+07 2.52506e+07 2.47015e+07 2.46898e+07 2.41532e+07 2.41414e+07 2.36297e+07 2.36179e+07 2.3149e+07 2.31371e+07
          2.27306e+07 2.27188e+07 2.23786e+07 2.23668e+07 2.2077e+07 2.2065e+07 2.20775e+07 2.20654e+07 2.24038e+07 2.23919e+07 2.27892e+07 2.27773e+07
          2.32499e+07 2.32381e+07 2.3768e+07 2.37562e+07 2.43202e+07 2.43084e+07 2.48898e+07 2.4878e+07 2.54664e+07 2.54546e+07 2.60435e+07 2.60318e+07
          2.66173e+07 2.66056e+07 2.71852e+07 2.71735e+07 2.77463e+07 2.77346e+07 2.83009e+07 2.82892e+07 2.88512e+07 2.88396e+07 2.9401e+07 2.93893e+07
          2.99508e+07 2.99392e+07 3.05009e+07 3.04893e+07 3.10511e+07 3.10395e+07 3.16014e+07 3.15898e+07 3.21519e+07 3.21403e+07 3.27025e+07 3.26909e+07
          3.32532e+07 3.32416e+07 3.38041e+07 3.37924e+07 3.4355e+07 3.43434e+07 3.49061e+07 3.48944e+07 3.54572e+07 3.54456e+07 3.60085e+07 3.59968e+07
          3.65598e+07 3.65482e+07 3.71112e+07 3.70996e+07 3.76627e+07 3.76511e+07 3.82142e+07 3.82026e+07 3.87658e+07 3.87542e+07 3.93174e+07 3.93058e+07
          3.98691e+07 3.98575e+07 4.04208e+07 4.04091e+07 4.09725e+07 4.09609e+07 4.15242e+07 4.15126e+07 4.2076e+07 4.20643e+07 4.26277e+07 4.2616e+07
          4.31794e+07 4.31678e+07 4.37311e+07 4.37195e+07 4.42828e+07 4.42712e+07 4.48345e+07 4.48228e+07 4.53861e+07 4.53745e+07 4.59379e+07 4.59263e+07
          4.64912e+07 4.64796e+07 4.70555e+07 4.70433e+07 4.76885e+07 4.7668e+07 4.85239e+07 4.85033e+07 4.95e+07 4.95e+07 4.95e+07 4.84972e+07
          4.76838e+07 4.70742e+07 4.65188e+07 4.59732e+07 4.5429e+07 4.48849e+07 4.43408e+07 4.37967e+07 4.32525e+07 4.27084e+07 4.21642e+07 4.162e+07
          4.10759e+07 4.05317e+07 3.99876e+07 3.94435e+07 3.88994e+07 3.83554e+07 3.78114e+07 3.72675e+07 3.67237e+07 3.61799e+07 3.56362e+07 3.50925e+07
          3.4549e+07 3.40056e+07 3.34622e+07 3.2919e+07 3.23759e+07 3.18329e+07 3.12901e+07 3.07474e+07 3.02048e+07 2.96624e+07 2.91202e+07 2.85781e+07
          2.80344e+07 2.74856e+07 2.69305e+07 2.63694e+07 2.58044e+07 2.52389e+07 2.4678e+07 2.41296e+07 2.3606e+07 2.31252e+07 2.27068e+07 2.23549e+07
          2.20526e+07 2.20531e+07 2.238e+07 2.27654e+07 2.32261e+07 2.37443e+07 2.42966e+07 2.48662e+07 2.54429e+07 2.60201e+07 2.65939e+07 2.71618e+07
          2.7723e+07 2.82776e+07 2.8828e+07 2.93777e+07 2.99276e+07 3.04776e+07 3.10278e+07 3.15782e+07 3.21286e+07 3.26792e+07 3.323e+07 3.37808e+07
          3.43317e+07 3.48828e+07 3.5434e+07 3.59852e+07 3.65365e+07 3.70879e+07 3.76394e+07 3.81909e+07 3.87425e+07 3.92941e+07 3.98458e+07 4.03975e+07
          4.09492e+07 4.15009e+07 4.20527e+07 4.26044e+07 4.31561e+07 4.37078e+07 4.42595e+07 4.48112e+07 4.53628e+07 4.59146e+07 4.6468e+07 4.70317e+07
          4.76527e+07 4.84825e+07 4.95e+07 4.95e+07 4.84763e+07 4.7671e+07 4.70626e+07 4.65072e+07 4.59616e+07 4.54173e+07 4.48732e+07 4.43291e+07
          4.3785e+07 4.32409e+07 4.26967e+07 4.21525e+07 4.16084e+07 4.10642e+07 4.05201e+07 3.99759e+07 3.94318e+07 3.88878e+07 3.83438e+07 3.77998e+07
          3.72559e+07 3.6712e+07 3.61682e+07 3.56245e+07 3.50809e+07 3.45374e+07 3.39939e+07 3.34506e+07 3.29074e+07 3.23643e+07 3.18213e+07 3.12785e+07
          3.07358e+07 3.01932e+07 2.96508e+07 2.91086e+07 2.85665e+07 2.80227e+07 2.7474e+07 2.69188e+07 2.63576e+07 2.57926e+07 2.52271e+07 2.46662e+07
          2.41177e+07 2.35941e+07 2.31132e+07 2.26948e+07 2.23429e+07 2.204e+07 2.20403e+07 2.2368e+07 2.27533e+07 2.32142e+07 2.37324e+07 2.42848e+07
          2.48544e+07 2.54311e+07 2.60084e+07 2.65822e+07 2.71502e+07 2.77113e+07 2.8266e+07 2.88163e+07 2.93661e+07 2.9916e+07 3.0466e+07 3.10162e+07
          3.15665e+07 3.2117e+07 3.26676e+07 3.32183e+07 3.37692e+07 3.43201e+07 3.48712e+07 3.54223e+07 3.59736e+07 3.65249e+07 3.70763e+07 3.76278e+07
          3.81793e+07 3.87309e+07 3.92825e+07 3.98342e+07 4.03858e+07 4.09376e+07 4.14893e+07 4.2041e+07 4.25927e+07 4.31445e+07 4.36962e+07 4.42479e+07
          4.47995e+07 4.53512e+07 4.5903e+07 4.64564e+07 4.70201e+07 4.76397e+07 4.84617e+07 4.95e+07 4.95e+07 4.84556e+07 4.76586e+07 4.70511e+07
          4.64956e+07 4.59499e+07 4.54057e+07 4.48616e+07 4.43175e+07 4.37733e+07 4.32292e+07 4.2685e+07 4.21409e+07 4.15967e+07 4.10526e+07 4.05084e+07
          3.99643e+07 3.94202e+07 3.88761e+07 3.83321e+07 3.77881e+07 3.72442e+07 3.67004e+07 3.61566e+07 3.56129e+07 3.50693e+07 3.45257e+07 3.39823e+07
          3.3439e+07 3.28957e+07 3.23526e+07 3.18097e+07 3.12668e+07 3.07241e+07 3.01816e+07 2.96392e+07 2.90969e+07 2.85548e+07 2.80111e+07 2.74623e+07
          2.69071e+07 2.63459e+07 2.57809e+07 2.52153e+07 2.46543e+07 2.41058e+07 2.35821e+07 2.31012e+07 2.26827e+07 2.23309e+07 2.20269e+07 2.20272e+07
          2.23559e+07 2.27412e+07 2.32021e+07 2.37205e+07 2.42729e+07 2.48426e+07 2.54193e+07 2.59966e+07 2.65705e+07 2.71385e+07 2.76996e+07 2.82543e+07
          2.88047e+07 2.93544e+07 2.99043e+07 3.04544e+07 3.10046e+07 3.15549e+07 3.21054e+07 3.2656e+07 3.32067e+07 3.37575e+07 3.43085e+07 3.48595e+07
          3.54107e+07 3.59619e+07 3.65133e+07 3.70647e+07 3.76161e+07 3.81676e+07 3.87192e+07 3.92709e+07 3.98225e+07 4.03742e+07 4.09259e+07 4.14776e+07
          4.20294e+07 4.25811e+07 4.31328e+07 4.36845e+07 4.42362e+07 4.47879e+07 4.53395e+07 4.58913e+07 4.64448e+07 4.70086e+07 4.76273e+07 4.8441e+07
          4.95e+07 4.95e+07 4.84361e+07 4.76466e+07 4.70396e+07 4.6484e+07 4.59383e+07 4.5394e+07 4.48499e+07 4.43058e+07 4.37617e+07 4.32175e+07
          4.26734e+07 4.21292e+07 4.15851e+07 4.10409e+07 4.04968e+07 3.99526e+07 3.94085e+07 3.88645e+07 3.83205e+07 3.77765e+07 3.72326e+07 3.66887e+07
          3.61449e+07 3.56012e+07 3.50576e+07 3.45141e+07 3.39706e+07 3.34273e+07 3.28841e+07 3.2341e+07 3.1798e+07 3.12552e+07 3.07125e+07 3.01699e+07
          2.96275e+07 2.90853e+07 2.85432e+07 2.79994e+07 2.74506e+07 2.68954e+07 2.63342e+07 2.57691e+07 2.52035e+07 2.46425e+07 2.40939e+07 2.357e+07
          2.3089e+07 2.26706e+07 2.23188e+07 2.20136e+07 2.20137e+07 2.23438e+07 2.2729e+07 2.319e+07 2.37085e+07 2.4261e+07 2.48308e+07 2.54075e+07
          2.59849e+07 2.65588e+07 2.71268e+07 2.7688e+07 2.82427e+07 2.87931e+07 2.93428e+07 2.98927e+07 3.04427e+07 3.09929e+07 3.15433e+07 3.20937e+07
          3.26443e+07 3.3195e+07 3.37459e+07 3.42968e+07 3.48479e+07 3.5399e+07 3.59503e+07 3.65016e+07 3.7053e+07 3.76045e+07 3.8156e+07 3.87076e+07
          3.92592e+07 3.98109e+07 4.03625e+07 4.09143e+07 4.1466e+07 4.20177e+07 4.25694e+07 4.31211e+07 4.36729e+07 4.42245e+07 4.47762e+07 4.53278e+07
          4.58797e+07 4.64332e+07 4.69971e+07 4.76152e+07 4.84212e+07 4.95e+07 4.9469e+07 4.84187e+07 4.76348e+07 4.7028e+07 4.64724e+07 4.59266e+07
          4.53823e+07 4.48383e+07 4.42942e+07 4.375e+07 4.32059e+07 4.26617e+07 4.21176e+07 4.15734e+07 4.10293e+07 4.04851e+07 3.9941e+07 3.93969e+07
          3.88528e+07 3.83088e+07 3.77648e+07 3.72209e+07 3.66771e+07 3.61333e+07 3.55896e+07 3.5046e+07 3.45024e+07 3.3959e+07 3.34157e+07 3.28725e+07
          3.23294e+07 3.17864e+07 3.12436e+07 3.07009e+07 3.01583e+07 2.96159e+07 2.90737e+07 2.85316e+07 2.79878e+07 2.7439e+07 2.68837e+07 2.63225e+07
          2.57573e+07 2.51917e+07 2.46306e+07 2.40819e+07 2.3558e+07 2.30768e+07 2.26583e+07 2.23066e+07 2.2e+07 2.2e+07 2.23316e+07 2.27167e+07
          2.31778e+07 2.36964e+07 2.42491e+07 2.4819e+07 2.53958e+07 2.59731e+07 2.65471e+07 2.71151e+07 2.76763e+07 2.8231e+07 2.87814e+07 2.93312e+07
          2.98811e+07 3.04311e+07 3.09813e+07 3.15316e+07 3.20821e+07 3.26327e+07 3.31834e+07 3.37342e+07 3.42852e+07 3.48362e+07 3.53874e+07 3.59386e+07
          3.649e+07 3.70414e+07 3.75928e+07 3.81444e+07 3.86959e+07 3.92476e+07 3.97992e+07 4.03509e+07 4.09026e+07 4.14543e+07 4.20061e+07 4.25578e+07
          4.31095e+07 4.36612e+07 4.42129e+07 4.47645e+07 4.53162e+07 4.5868e+07 4.64215e+07 4.69856e+07 4.76034e+07 4.84035e+07 4.94688e+07 4.94403e+07
          4.84033e+07 4.76232e+07 4.70165e+07 4.64608e+07 4.5915e+07 4.53707e+07 4.48266e+07 4.42825e+07 4.37384e+07 4.31942e+07 4.26501e+07 4.21059e+07
          4.15618e+07 4.10176e+07 4.04735e+07 3.99293e+07 3.93852e+07 3.88412e+07 3.82972e+07 3.77532e+07 3.72093e+07 3.66654e+07 3.61217e+07 3.55779e+07
          3.50343e+07 3.44908e+07 3.39474e+07 3.3404e+07 3.28608e+07 3.23177e+07 3.17748e+07 3.12319e+07 3.06892e+07 3.01467e+07 2.96043e+07 2.9062e+07
          2.852e+07 2.79762e+07 2.74273e+07 2.6872e+07 2.63107e+07 2.57456e+07 2.51799e+07 2.46187e+07 2.40699e+07 2.35458e+07 2.30645e+07 2.2646e+07
          2.22944e+07 2.2e+07 2.2e+07 2.23194e+07 2.27043e+07 2.31656e+07 2.36844e+07 2.42371e+07 2.48071e+07 2.5384e+07 2.59614e+07 2.65354e+07
          2.71034e+07 2.76647e+07 2.82194e+07 2.87698e+07 2.93195e+07 2.98694e+07 3.04195e+07 3.09697e+07 3.152e+07 3.20705e+07 3.2621e+07 3.31718e+07
          3.37226e+07 3.42736e+07 3.48246e+07 3.53758e+07 3.5927e+07 3.64783e+07 3.70297e+07 3.75812e+07 3.81327e+07 3.86843e+07 3.92359e+07 3.97876e+07
          4.03392e+07 4.0891e+07 4.14427e+07 4.19944e+07 4.25461e+07 4.30978e+07 4.36495e+07 4.42012e+07 4.47529e+07 4.53045e+07 4.58564e+07 4.64099e+07
          4.69741e+07 4.75918e+07 4.83879e+07 4.944e+07 4.94139e+07 4.83893e+07 4.76117e+07 4.7005e+07 4.64491e+07 4.59033e+07 4.5359e+07 4.48149e+07
          4.42708e+07 4.37267e+07 4.31826e+07 4.26384e+07 4.20943e+07 4.15501e+07 4.1006e+07 4.04618e+07 3.99177e+07 3.93736e+07 3.88295e+07 3.82855e+07
          3.77416e+07 3.71976e+07 3.66538e+07 3.611e+07 3.55663e+07 3.50227e+07 3.44792e+07 3.39357e+07 3.33924e+07 3.28492e+07 3.23061e+07 3.17631e+07
          3.12203e+07 3.06776e+07 3.0135e+07 2.95926e+07 2.90504e+07 2.85083e+07 2.79645e+07 2.74156e+07 2.68603e+07 2.6299e+07 2.57338e+07 2.5168e+07
          2.46068e+07 2.40579e+07 2.35336e+07 2.30521e+07 2.26336e+07 2.22822e+07 2.2e+07 2.2e+07 2.2307e+07 2.26918e+07 2.31532e+07 2.36722e+07
          2.42252e+07 2.47952e+07 2.53721e+07 2.59496e+07 2.65236e+07 2.70917e+07 2.7653e+07 2.82078e+07 2.87582e+07 2.93079e+07 2.98578e+07 3.04078e+07
          3.0958e+07 3.15084e+07 3.20588e+07 3.26094e+07 3.31601e+07 3.3711e+07 3.42619e+07 3.4813e+07 3.53641e+07 3.59154e+07 3.64667e+07 3.70181e+07
          3.75695e+07 3.81211e+07 3.86726e+07 3.92243e+07 3.97759e+07 4.03276e+07 4.08793e+07 4.1431e+07 4.19827e+07 4.25345e+07 4.30862e+07 4.36379e+07
          4.41896e+07 4.47412e+07 4.52929e+07 4.58447e+07 4.63983e+07 4.69625e+07 4.75803e+07 4.83738e+07 4.94135e+07 4.93897e+07 4.83764e+07 4.76002e+07
          4.69934e+07 4.64375e+07 4.58916e+07 4.53474e+07 4.48033e+07 4.42592e+07 4.37151e+07 4.31709e+07 4.26268e+07 4.20826e+07 4.15385e+07 4.09943e+07
          4.04502e+07 3.9906e+07 3.9362e+07 3.88179e+07 3.82739e+07 3.77299e+07 3.7186e+07 3.66421e+07 3.60984e+07 3.55547e+07 3.50111e+07 3.44675e+07
          3.39241e+07 3.33808e+07 3.28376e+07 3.22945e+07 3.17515e+07 3.12087e+07 3.0666e+07 3.01234e+07 2.9581e+07 2.90388e+07 2.84967e+07 2.79529e+07
          2.74039e+07 2.68486e+07 2.62873e+07 2.5722e+07 2.51562e+07 2.45948e+07 2.40458e+07 2.35214e+07 2.30397e+07 2.26211e+07 2.22698e+07 2.2e+07
          2.2e+07 2.22946e+07 2.26792e+07 2.31409e+07 2.36601e+07 2.42132e+07 2.47833e+07 2.53603e+07 2.59378e+07 2.65119e+07 2.708e+07 2.76413e+07
          2.81961e+07 2.87466e+07 2.92963e+07 2.98462e+07 3.03962e+07 3.09464e+07 3.14967e+07 3.20472e+07 3.25978e+07 3.31485e+07 3.36993e+07 3.42503e+07
          3.48013e+07 3.53525e+07 3.59037e+07 3.6455e+07 3.70064e+07 3.75579e+07 3.81094e+07 3.8661e+07 3.92126e+07 3.97643e+07 4.03159e+07 4.08677e+07
          4.14194e+07 4.19711e+07 4.25228e+07 4.30745e+07 4.36262e+07 4.41779e+07 4.47296e+07 4.52812e+07 4.58331e+07 4.63866e+07 4.6951e+07 4.75688e+07
          4.83608e+07 4.93894e+07 4.93679e+07 4.83645e+07 4.75886e+07 4.69817e+07 4.64258e+07 4.588e+07 4.53357e+07 4.47916e+07 4.42475e+07 4.37034e+07
          4.31593e+07 4.26151e+07 4.2071e+07 4.15268e+07 4.09827e+07 4.04385e+07 3.98944e+07 3.93503e+07 3.88062e+07 3.82622e+07 3.77183e+07 3.71744e+07
          3.66305e+07 3.60867e+07 3.5543e+07 3.49994e+07 3.44559e+07 3.39125e+07 3.33691e+07 3.28259e+07 3.22828e+07 3.17399e+07 3.1197e+07 3.06543e+07
          3.01118e+07 2.95694e+07 2.90271e+07 2.84851e+07 2.79412e+07 2.73923e+07 2.68369e+07 2.62755e+07 2.57102e+07 2.51443e+07 2.45829e+07 2.40337e+07
          2.35091e+07 2.30272e+07 2.26086e+07 2.22657e+07 2.2e+07 2.2e+07 2.22823e+07 2.26666e+07 2.31284e+07 2.36479e+07 2.42011e+07 2.47714e+07
          2.53485e+07 2.59261e+07 2.65002e+07 2.70684e+07 2.76297e+07 2.81845e+07 2.87349e+07 2.92847e+07 2.98345e+07 3.03846e+07 3.09348e+07 3.14851e+07
          3.20356e+07 3.25861e+07 3.31369e+07 3.36877e+07 3.42386e+07 3.47897e+07 3.53408e+07 3.58921e+07 3.64434e+07 3.69948e+07 3.75463e+07 3.80978e+07
          3.86493e+07 3.9201e+07 3.97526e+07 4.03043e+07 4.0856e+07 4.14077e+07 4.19594e+07 4.25112e+07 4.30629e+07 4.36146e+07 4.41663e+07 4.47179e+07
          4.52696e+07 4.58214e+07 4.6375e+07 4.69393e+07 4.75572e+07 4.83488e+07 4.93675e+07
        </DataArray>
        <DataArray type="Float32" Name="pressure_oil" NumberOfComponents="1" format="ascii">
          4.95e+07 4.85385e+07 4.95e+07 4.85179e+07 4.77193e+07 4.76987e+07 4.70979e+07 4.70858e+07 4.65421e+07 4.65305e+07 4.59965e+07 4.59849e+07
          4.54523e+07 4.54406e+07 4.49082e+07 4.48965e+07 4.43641e+07 4.43524e+07 4.382e+07 4.38083e+07 4.32758e+07 4.32642e+07 4.27317e+07 4.272e+07
          4.21875e+07 4.21758e+07 4.16433e+07 4.16317e+07 4.10992e+07 4.10875e+07 4.0555e+07 4.05434e+07 4.00109e+07 3.99992e+07 3.94668e+07 3.94551e+07
          3.89227e+07 3.89111e+07 3.83787e+07 3.8367e+07 3.78347e+07 3.78231e+07 3.72908e+07 3.72792e+07 3.67469e+07 3.67353e+07 3.62031e+07 3.61915e+07
          3.56594e+07 3.56478e+07 3.51158e+07 3.51042e+07 3.45723e+07 3.45606e+07 3.40288e+07 3.40172e+07 3.34855e+07 3.34739e+07 3.29423e+07 3.29306e+07
          3.23992e+07 3.23875e+07 3.18562e+07 3.18446e+07 3.13134e+07 3.13017e+07 3.07707e+07 3.0759e+07 3.02281e+07 3.02165e+07 2.96857e+07 2.96741e+07
          2.91434e+07 2.91318e+07 2.86014e+07 2.85897e+07 2.80577e+07 2.8046e+07 2.7509e+07 2.74973e+07 2.69538e+07 2.69421e+07 2.63928e+07 2.63811e+07
          2.58278e+07 2.58161e+07 2.52624e+07 2.52506e+07 2.47015e+07 2.46898e+07 2.41532e+07 2.41414e+07 2.36297e+07 2.36179e+07 2.3149e+07 2.31371e+07
          2.27306e+07 2.27188e+07 2.23786e+07 2.23668e+07 2.2077e+07 2.2065e+07 2.20775e+07 2.20654e+07 2.24038e+07 2.23919e+07 2.27892e+07 2.27773e+07
          2.32499e+07 2.32381e+07 2.3768e+07 2.37562e+07 2.43202e+07 2.43084e+07 2.48898e+07 2.4878e+07 2.54664e+07 2.54546e+07 2.60435e+07 2.60318e+07
          2.66173e+07 2.66056e+07 2.71852e+07 2.71735e+07 2.77463e+07 2.77346e+07 2.83009e+07 2.82892e+07 2.88512e+07 2.88396e+07 2.9401e+07 2.93893e+07
          2.99508e+07 2.99392e+07 3.05009e+07 3.04893e+07 3.10511e+07 3.10395e+07 3.16014e+07 3.15898e+07 3.21519e+07 3.21403e+07 3.27025e+07 3.26909e+07
          3.32532e+07 3.32416e+07 3.38041e+07 3.37924e+07 3.4355e+07 3.43434e+07 3.49061e+07 3.48944e+07 3.54572e+07 3.54456e+07 3.60085e+07 3.59968e+07
          3.65598e+07 3.65482e+07 3.71112e+07 3.70996e+07 3.76627e+07 3.76511e+07 3.82142e+07 3.82026e+07 3.87658e+07 3.87542e+07 3.93174e+07 3.93058e+07
          3.98691e+07 3.98575e+07 4.04208e+07 4.04091e+07 4.09725e+07 4.09609e+07 4.15242e+07 4.15126e+07 4.2076e+07 4.20643e+07 4.26277e+07 4.2616e+07
          4.31794e+07 4.31678e+07 4.37311e+07 4.37195e+07 4.42828e+07 4.42712e+07 4.48345e+07 4.48228e+07 4.53861e+07 4.53745e+07 4.59379e+07 4.59263e+07
          4.64912e+07 4.64796e+07 4.70555e+07 4.70433e+07 4.76885e+07 4.7668e+07 4.85239e+07 4.85033e+07 4.95e+07 4.95e+07 4.95e+07 4.84972e+07
          4.76838e+07 4.70742e+07 4.65188e+07 4.59732e+07 4.5429e+07 4.48849e+07 4.43408e+07 4.37967e+07 4.32525e+07 4.27084e+07 4.21642e+07 4.162e+07
          4.10759e+07 4.05317e+07 3.99876e+07 3.94435e+07 3.88994e+07 3.83554e+07 3.78114e+07 3.72675e+07 3.67237e+07 3.61799e+07 3.56362e+07 3.50925e+07
          3.4549e+07 3.40056e+07 3.34622e+07 3.2919e+07 3.23759e+07 3.18329e+07 3.12901e+07 3.07474e+07 3.02048e+07 2.96624e+07 2.91202e+07 2.85781e+07
          2.80344e+07 2.74856e+07 2.69305e+07 2.63694e+07 2.58044e+07 2.52389e+07 2.4678e+07 2.41296e+07 2.3606e+07 2.31252e+07 2.27068e+07 2.23549e+07
          2.20526e+07 2.20531e+07 2.238e+07 2.27654e+07 2.32261e+07 2.37443e+07 2.42966e+07 2.48662e+07 2.54429e+07 2.60201e+07 2.65939e+07 2.71618e+07
          2.7723e+07 2.82776e+07 2.8828e+07 2.93777e+07 2.99276e+07 3.04776e+07 3.10278e+07 3.15782e+07 3.21286e+07 3.26792e+07 3.323e+07 3.37808e+07
          3.43317e+07 3.48828e+07 3.5434e+07 3.59852e+07 3.65365e+07 3.70879e+07 3.76394e+07 3.81909e+07 3.87425e+07 3.92941e+07 3.98458e+07 4.03975e+07
          4.09492e+07 4.15009e+07 4.20527e+07 4.26044e+07 4.31561e+07 4.37078e+07 4.42595e+07 4.48112e+07 4.53628e+07 4.59146e+07 4.6468e+07 4.70317e+07
          4.76527e+07 4.84825e+07 4.95e+07 4.95e+07 4.84763e+07 4.7671e+07 4.70626e+07 4.65072e+07 4.59616e+07 4.54173e+07 4.48732e+07 4.43291e+07
          4.3785e+07 4.32409e+07 4.26967e+07 4.21525e+07 4.16084e+07 4.10642e+07 4.05201e+07 3.99759e+07 3.94318e+07 3.88878e+07 3.83438e+07 3.77998e+07
          3.72559e+07 3.6712e+07 3.61682e+07 3.56245e+07 3.50809e+07 3.45374e+07 3.39939e+07 3.34506e+07 3.29074e+07 3.23643e+07 3.18213e+07 3.12785e+07
          3.07358e+07 3.01932e+07 2.96508e+07 2.91086e+07 2.85665e+07 2.80227e+07 2.7474e+07 2.69188e+07 2.63576e+07 2.57926e+07 2.52271e+07 2.46662e+07
          2.41177e+07 2.35941e+07 2.31132e+07 2.26948e+07 2.23429e+07 2.204e+07 2.20403e+07 2.2368e+07 2.27533e+07 2.32142e+07 2.37324e+07 2.42848e+07
          2.48544e+07 2.54311e+07 2.60084e+07 2.65822e+07 2.71502e+07 2.77113e+07 2.8266e+07 2.88163e+07 2.93661e+07 2.9916e+07 3.0466e+07 3.10162e+07
          3.15665e+07 3.2117e+07 3.26676e+07 3.32183e+07 3.37692e+07 3.43201e+07 3.48712e+07 3.54223e+07 3.59736e+07 3.65249e+07 3.70763e+07 3.76278e+07
          3.81793e+07 3.87309e+07 3.92825e+07 3.98342e+07 4.03858e+07 4.09376e+07 4.14893e+07 4.2041e+07 4.25927e+07 4.31445e+07 4.36962e+07 4.42479e+07
          4.47995e+07 4.53512e+07 4.5903e+07 4.64564e+07 4.70201e+07 4.76397e+07 4.84617e+07 4.95e+07 4.95e+07 4.84556e+07 4.76586e+07 4.70511e+07
          4.64956e+07 4.59499e+07 4.54057e+07 4.48616e+07 4.43175e+07 4.37733e+07 4.32292e+07 4.2685e+07 4.21409e+07 4.15967e+07 4.10526e+07 4.05084e+07
          3.99643e+07 3.94202e+07 3.88761e+07 3.83321e+07 3.77881e+07 3.72442e+07 3.67004e+07 3.61566e+07 3.56129e+07 3.50693e+07 3.45257e+07 3.39823e+07
          3.3439e+07 3.28957e+07 3.23526e+07 3.18097e+07 3.12668e+07 3.07241e+07 3.01816e+07 2.96392e+07 2.90969e+07 2.85548e+07 2.80111e+07 2.74623e+07
          2.69071e+07 2.63459e+07 2.57809e+07 2.52153e+07 2.46543e+07 2.41058e+07 2.35821e+07 2.31012e+07 2.26827e+07 2.23309e+07 2.20269e+07 2.20272e+07
          2.23559e+07 2.27412e+07 2.32021e+07 2.37205e+07 2.42729e+07 2.48426e+07 2.54193e+07 2.59966e+07 2.65705e+07 2.71385e+07 2.76996e+07 2.82543e+07
          2.88047e+07 2.93544e+07 2.99043e+07 3.04544e+07 3.10046e+07 3.15549e+07 3.21054e+07 3.2656e+07 3.32067e+07 3.37575e+07 3.43085e+07 3.48595e+07
          3.54107e+07 3.59619e+07 3.65133e+07 3.70647e+07 3.76161e+07 3.81676e+07 3.87192e+07 3.92709e+07 3.98225e+07 4.03742e+07 4.09259e+07 4.14776e+07
          4.20294e+07 4.25811e+07 4.31328e+07 4.36845e+07 4.42362e+07 4.47879e+07 4.53395e+07 4.58913e+07 4.64448e+07 4.70086e+07 4.76273e+07 4.8441e+07
          4.95e+07 4.95e+07 4.84361e+07 4.76466e+07 4.70396e+07 4.6484e+07 4.59383e+07 4.5394e+07 4.48499e+07 4.43058e+07 4.37617e+07 4.32175e+07
          4.26734e+07 4.21292e+07 4.15851e+07 4.10409e+07 4.04968e+07 3.99526e+07 3.94085e+07 3.88645e+07 3.83205e+07 3.77765e+07 3.72326e+07 3.66887e+07
          3.61449e+07 3.56012e+07 3.50576e+07 3.45141e+07 3.39706e+07 3.34273e+07 3.28841e+07 3.2341e+07 3.1798e+07 3.12552e+07 3.07125e+07 3.01699e+07
          2.96275e+07 2.90853e+07 2.85432e+07 2.79994e+07 2.74506e+07 2.68954e+07 2.63342e+07 2.57691e+07 2.52035e+07 2.46425e+07 2.40939e+07 2.357e+07
          2.3089e+07 2.26706e+07 2.23188e+07 2.20136e+07 2.20137e+07 2.23438e+07 2.2729e+07 2.319e+07 2.37085e+07 2.4261e+07 2.48308e+07 2.54075e+07
          2.59849e+07 2.65588e+07 2.71268e+07 2.7688e+07 2.82427e+07 2.87931e+07 2.93428e+07 2.98927e+07 3.04427e+07 3.09929e+07 3.15433e+07 3.20937e+07
          3.26443e+07 3.3195e+07 3.37459e+07 3.42968e+07 3.48479e+07 3.5399e+07 3.59503e+07 3.65016e+07 3.7053e+07 3.76045e+07 3.8156e+07 3.87076e+07
          3.92592e+07 3.98109e+07 4.03625e+07 4.09143e+07 4.1466e+07 4.20177e+07 4.25694e+07 4.31211e+07 4.36729e+07 4.42245e+07 4.47762e+07 4.53278e+07
          4.58797e+07 4.64332e+07 4.69971e+07 4.76152e+07 4.84212e+07 4.95e+07 4.9469e+07 4.84187e+07 4.76348e+07 4.7028e+07 4.64724e+07 4.59266e+07
          4.53823e+07 4.48383e+07 4.42942e+07 4.375e+07 4.32059e+07 4.26617e+07 4.21176e+07 4.15734e+07 4.10293e+07 4.04851e+07 3.9941e+07 3.93969e+07
          3.88528e+07 3.83088e+07 3.77648e+07 3.72209e+07 3.66771e+07 3.61333e+07 3.55896e+07 3.5046e+07 3.45024e+07 3.3959e+07 3.34157e+07 3.28725e+07
          3.23294e+07 3.17864e+07 3.12436e+07 3.07009e+07 3.01583e+07 2.96159e+07 2.90737e+07 2.85316e+07 2.79878e+07 2.7439e+07 2.68837e+07 2.63225e+07
          2.57573e+07 2.51917e+07 2.46306e+07 2.40819e+07 2.3558e+07 2.30768e+07 2.26583e+07 2.23066e+07 2.2e+07 2.2e+07 2.23316e+07 2.27167e+07
          2.31778e+07 2.36964e+07 2.42491e+07 2.4819e+07 2.53958e+07 2.59731e+07 2.65471e+07 2.71151e+07 2.76763e+07 2.8231e+07 2.87814e+07 2.93312e+07
          2.98811e+07 3.04311e+07 3.09813e+07 3.15316e+07 3.20821e+07 3.26327e+07 3.31834e+07 3.37342e+07 3.42852e+07 3.48362e+07 3.53874e+07 3.59386e+07
          3.649e+07 3.70414e+07 3.75928e+07 3.81444e+07 3.86959e+07 3.92476e+07 3.97992e+07 4.03509e+07 4.09026e+07 4.14543e+07 4.20061e+07 4.25578e+07
          4.31095e+07 4.36612e+07 4.42129e+07 4.47645e+07 4.53162e+07 4.5868e+07 4.64215e+07 4.69856e+07 4.76034e+07 4.84035e+07 4.94688e+07 4.94403e+07
          4.84033e+07 4.76232e+07 4.70165e+07 4.64608e+07 4.5915e+07 4.53707e+07 4.48266e+07 4.42825e+07 4.37384e+07 4.31942e+07 4.26501e+07 4.21059e+07
          4.15618e+07 4.10176e+07 4.04735e+07 3.99293e+07 3.93852e+07 3.88412e+07 3.82972e+07 3.77532e+07 3.72093e+07 3.66654e+07 3.61217e+07 3.55779e+07
          3.50343e+07 3.44908e+07 3.39474e+07 3.3404e+07 3.28608e+07 3.23177e+07 3.17748e+07 3.12319e+07 3.06892e+07 3.01467e+07 2.96043e+07 2.9062e+07
          2.852e+07 2.79762e+07 2.74273e+07 2.6872e+07 2.63107e+07 2.57456e+07 2.51799e+07 2.46187e+07 2.40699e+07 2.35458e+07 2.30645e+07 2.2646e+07
          2.22944e+07 2.2e+07 2.2e+07 2.23194e+07 2.27043e+07 2.31656e+07 2.36844e+07 2.42371e+07 2.48071e+07 2.5384e+07 2.59614e+07 2.65354e+07
          2.71034e+07 2.76647e+07 2.82194e+07 2.87698e+07 2.93195e+07 2.98694e+07 3.04195e+07 3.09697e+07 3.152e+07 3.20705e+07 3.2621e+07 3.31718e+07
          3.37226e+07 3.42736e+07 3.48246e+07 3.53758e+07 3.5927e+07 3.64783e+07 3.70297e+07 3.75812e+07 3.81327e+07 3.86843e+07 3.92359e+07 3.97876e+07
          4.03392e+07 4.0891e+07 4.14427e+07 4.19944e+07 4.25461e+07 4.30978e+07 4.36495e+07 4.42012e+07 4.47529e+07 4.53045e+07 4.58564e+07 4.64099e+07
          4.69741e+07 4.75918e+07 4.83879e+07 4.944e+07 4.94139e+07 4.83893e+07 4.76117e+07 4.7005e+07 4.64491e+07 4.59033e+07 4.5359e+07 4.48149e+07
          4.42708e+07 4.37267e+07 4.31826e+07 4.26384e+07 4.20943e+07 4.15501e+07 4.1006e+07 4.04618e+07 3.99177e+07 3.93736e+07 3.88295e+07 3.82855e+07
          3.77416e+07 3.71976e+07 3.66538e+07 3.611e+07 3.55663e+07 3.50227e+07 3.44792e+07 3.39357e+07 3.33924e+07 3.28492e+07 3.23061e+07 3.17631e+07
          3.12203e+07 3.06776e+07 3.0135e+07 2.95926e+07 2.90504e+07 2.85083e+07 2.79645e+07 2.74156e+07 2.68603e+07 2.6299e+07 2.57338e+07 2.5168e+07
          2.46068e+07 2.40579e+07 2.35336e+07 2.30521e+07 2.26336e+07 2.22822e+07 2.2e+07 2.2e+07 2.2307e+07 2.26918e+07 2.31532e+07 2.36722e+07
          2.42252e+07 2.47952e+07 2.53721e+07 2.59496e+07 2.65236e+07 2.70917e+07 2.7653e+07 2.82078e+07 2.87582e+07 2.93079e+07 2.98578e+07 3.04078e+07
          3.0958e+07 3.15084e+07 3.20588e+07 3.26094e+07 3.31601e+07 3.3711e+07 3.42619e+07 3.4813e+07 3.53641e+07 3.59154e+07 3.64667e+07 3.70181e+07
          3.75695e+07 3.81211e+07 3.86726e+07 3.92243e+07 3.97759e+07 4.03276e+07 4.08793e+07 4.1431e+07 4.19827e+07 4.25345e+07 4.30862e+07 4.36379e+07
          4.41896e+07 4.47412e+07 4.52929e+07 4.58447e+07 4.63983e+07 4.69625e+07 4.75803e+07 4.83738e+07 4.94135e+07 4.93897e+07 4.83764e+07 4.76002e+07
          4.69934e+07 4.64375e+07 4.58916e+07 4.53474e+07 4.48033e+07 4.42592e+07 4.37151e+07 4.31709e+07 4.26268e+07 4.20826e+07 4.15385e+07 4.09943e+07
          4.04502e+07 3.9906e+07 3.9362e+07 3.88179e+07 3.82739e+07 3.77299e+07 3.7186e+07 3.66421e+07 3.60984e+07 3.55547e+07 3.50111e+07 3.44675e+07
          3.39241e+07 3.33808e+07 3.28376e+07 3.22945e+07 3.17515e+07 3.12087e+07 3.0666e+07 3.01234e+07 2.9581e+07 2.90388e+07 2.84967e+07 2.79529e+07
          2.74039e+07 2.68486e+07 2.62873e+07 2.5722e+07 2.51562e+07 2.45948e+07 2.40458e+07 2.35214e+07 2.30397e+07 2.26211e+07 2.22698e+07 2.2e+07
          2.2e+07 2.22946e+07 2.26792e+07 2.31409e+07 2.36601e+07 2.42132e+07 2.47833e+07 2.53603e+07 2.59378e+07 2.65119e+07 2.708e+07 2.76413e+07
          2.81961e+07 2.87466e+07 2.92963e+07 2.98462e+07 3.03962e+07 3.09464e+07 3.14967e+07 3.20472e+07 3.25978e+07 3.31485e+07 3.36993e+07 3.42503e+07
          3.48013e+07 3.53525e+07 3.59037e+07 3.6455e+07 3.70064e+07 3.75579e+07 3.81094e+07 3.8661e+07 3.92126e+07 3.97643e+07 4.03159e+07 4.08677e+07
          4.14194e+07 4.19711e+07 4.25228e+07 4.30745e+07 4.36262e+07 4.41779e+07 4.47296e+07 4.52812e+07 4.58331e+07 4.63866e+07 4.6951e+07 4.75688e+07
          4.83608e+07 4.93894e+07 4.93679e+07 4.83645e+07 4.75886e+07 4.69817e+07 4.64258e+07 4.588e+07 4.53357e+07 4.47916e+07 4.42475e+07 4.37034e+07
          4.31593e+07 4.26151e+07 4.2071e+07 4.15268e+07 4.09827e+07 4.04385e+07 3.98944e+07 3.93503e+07 3.88062e+07 3.82622e+07 3.77183e+07 3.71744e+07
          3.66305e+07 3.60867e+07 3.5543e+07 3.49994e+07 3.44559e+07 3.39125e+07 3.33691e+07 3.28259e+07 3.22828e+07 3.17399e+07 3.1197e+07 3.06543e+07
          3.01118e+07 2.95694e+07 2.90271e+07 2.84851e+07 2.79412e+07 2.73923e+07 2.68369e+07 2.62755e+07 2.57102e+07 2.51443e+07 2.45829e+07 2.40337e+07
          2.35091e+07 2.30272e+07 2.26086e+07 2.22657e+07 2.2e+07 2.2e+07 2.22823e+07 2.26666e+07 2.31284e+07 2.36479e+07 2.42011e+07 2.47714e+07
          2.53485e+07 2.59261e+07 2.65002e+07 2.70684e+07 2.76297e+07 2.81845e+07 2.87349e+07 2.92847e+07 2.98345e+07 3.03846e+07 3.09348e+07 3.14851e+07
          3.20356e+07 3.25861e+07 3.31369e+07 3.36877e+07 3.42386e+07 3.47897e+07 3.53408e+07 3.58921e+07 3.64434e+07 3.69948e+07 3.75463e+07 3.80978e+07
          3.86493e+07 3.9201e+07 3.97526e+07 4.03043e+07 4.0856e+07 4.14077e+07 4.19594e+07 4.25112e+07 4.30629e+07 4.36146e+07 4.41663e+07 4.47179e+07
          4.52696e+07 4.58214e+07 4.6375e+07 4.69393e+07 4.75572e+07 4.83488e+07 4.93675e+07
        </DataArray>
        <DataArray type="Float32" Name="pressure_gas" NumberOfComponents="1" format="ascii">
          4.95e+07 4.85385e+07 4.95e+07 4.85179e+07 4.77193e+07 4.76987e+07 4.70979e+07 4.70858e+07 4.65421e+07 4.65305e+07 4.59965e+07 4.59849e+07
          4.54523e+07 4.54406e+07 4.49082e+07 4.48965e+07 4.43641e+07 4.43524e+07 4.382e+07 4.38083e+07 4.32758e+07 4.32642e+07 4.27317e+07 4.272e+07
          4.21875e+07 4.21758e+07 4.16433e+07 4.16317e+07 4.10992e+07 4.10875e+07 4.0555e+07 4.05434e+07 4.00109e+07 3.99992e+07 3.94668e+07 3.94551e+07
          3.89227e+07 3.89111e+07 3.83787e+07 3.8367e+07 3.78347e+07 3.78231e+07 3.72908e+07 3.72792e+07 3.67469e+07 3.67353e+07 3.62031e+07 3.61915e+07
          3.56594e+07 3.56478e+07 3.51158e+07 3.51042e+07 3.45723e+07 3.45606e+07 3.40288e+07 3.40172e+07 3.34855e+07 3.34739e+07 3.29423e+07 3.29306e+07
          3.23992e+07 3.23875e+07 3.18562e+07 3.18446e+07 3.13134e+07 3.13017e+07 3.07707e+07 3.0759e+07 3.02281e+07 3.02165e+07 2.96857e+07 2.96741e+07
          2.91434e+07 2.91318e+07 2.86014e+07 2.85897e+07 2.80577e+07 2.8046e+07 2.7509e+07 2.74973e+07 2.69538e+07 2.69421e+07 2.63928e+07 2.63811e+07
          2.58278e+07 2.58161e+07 2.52624e+07 2.52506e+07 2.47015e+07 2.46898e+07 2.41532e+07 2.41414e+07 2.36297e+07 2.36179e+07 2.3149e+07 2.31371e+07