<?xml version="1.0"?>
<VTKFile type="UnstructuredGrid" version="0.1" byte_order="LittleEndian">
  <UnstructuredGrid>
    <Piece NumberOfCells="1000" NumberOfPoints="1111">
      <PointData Scalars="pressure_water">
        <DataArray type="Float32" Name="pressure_water" NumberOfComponents="1" format="ascii">
          4.95e+07 4.85473e+07 4.95e+07 4.85234e+07 4.7709e+07 4.76876e+07 4.70841e+07 4.7073e+07 4.65264e+07 4.65146e+07 4.59793e+07 4.59677e+07
          4.54345e+07 4.54228e+07 4.489e+07 4.48783e+07 4.43456e+07 4.43339e+07 4.38011e+07 4.37894e+07 4.32566e+07 4.3245e+07 4.27121e+07 4.27005e+07
          4.21676e+07 4.21559e+07 4.16231e+07 4.16114e+07 4.10786e+07 4.10669e+07 4.05341e+07 4.05224e+07 3.99896e+07 3.99779e+07 3.94451e+07 3.94335e+07
          3.89007e+07 3.8889e+07 3.83563e+07 3.83446e+07 3.78119e+07 3.78002e+07 3.72676e+07 3.72559e+07 3.67233e+07 3.67116e+07 3.61791e+07 3.61674e+07
          3.56349e+07 3.56233e+07 3.50908e+07 3.50792e+07 3.45468e+07 3.45352e+07 3.40029e+07 3.39913e+07 3.34591e+07 3.34475e+07 3.29154e+07 3.29037e+07
          3.23718e+07 3.23601e+07 3.18282e+07 3.18166e+07 3.12848e+07 3.12732e+07 3.07416e+07 3.07299e+07 3.01984e+07 3.01868e+07 2.96554e+07 2.96438e+07
          2.91126e+07 2.91009e+07 2.85698e+07 2.85582e+07 2.80258e+07 2.80142e+07 2.7477e+07 2.74654e+07 2.69227e+07 2.6911e+07 2.63645e+07 2.63528e+07
          2.58048e+07 2.57931e+07 2.52473e+07 2.52356e+07 2.46971e+07 2.46853e+07 2.41613e+07 2.41495e+07 2.365e+07 2.36382e+07 2.31766e+07 2.31648e+07
          2.2755e+07 2.27431e+07 2.23933e+07 2.23815e+07 2.20781e+07 2.20661e+07 2.20788e+07 2.20667e+07 2.24165e+07 2.24046e+07 2.28097e+07 2.27978e+07
          2.32654e+07 2.32535e+07 2.37699e+07 2.37581e+07 2.43073e+07 2.42955e+07 2.48642e+07 2.48524e+07 2.54313e+07 2.54195e+07 2.60022e+07 2.59904e+07
          2.65724e+07 2.65607e+07 2.7139e+07 2.71273e+07 2.77001e+07 2.76884e+07 2.8255e+07 2.82433e+07 2.88059e+07 2.87943e+07 2.93566e+07 2.93449e+07
          2.99073e+07 2.98957e+07 3.04582e+07 3.04466e+07 3.10093e+07 3.09977e+07 3.15605e+07 3.15488e+07 3.21118e+07 3.21001e+07 3.26632e+07 3.26516e+07
          3.32147e+07 3.32031e+07 3.37663e+07 3.37547e+07 3.43181e+07 3.43064e+07 3.48699e+07 3.48582e+07 3.54218e+07 3.54101e+07 3.59737e+07 3.59621e+07
          3.65258e+07 3.65141e+07 3.70779e+07 3.70662e+07 3.763e+07 3.76184e+07 3.81822e+07 3.81706e+07 3.87345e+07 3.87228e+07 3.92868e+07 3.92751e+07
          3.98391e+07 3.98274e+07 4.03914e+07 4.03798e+07 4.09438e+07 4.09321e+07 4.14962e+07 4.14845e+07 4.20485e+07 4.20369e+07 4.26009e+07 4.25892e+07
          4.31532e+07 4.31416e+07 4.37056e+07 4.36939e+07 4.42579e+07 4.42463e+07 4.48102e+07 4.47986e+07 4.53626e+07 4.5351e+07 4.59154e+07 4.59038e+07
          4.64708e+07 4.64591e+07 4.70381e+07 4.70269e+07 4.76767e+07 4.76553e+07 4.85321e+07 4.85083e+07 4.95e+07 4.95e+07 4.95e+07 4.84983e+07
          4.76732e+07 4.70618e+07 4.65029e+07 4.5956e+07 4.54112e+07 4.48667e+07 4.43222e+07 4.37778e+07 4.32333e+07 4.26888e+07 4.21443e+07 4.15998e+07
          4.10553e+07 4.05108e+07 3.99663e+07 3.94218e+07 3.88774e+07 3.8333e+07 3.77886e+07 3.72443e+07 3.67e+07 3.61558e+07 3.56116e+07 3.50676e+07
          3.45236e+07 3.39797e+07 3.34358e+07 3.28921e+07 3.23485e+07 3.1805e+07 3.12616e+07 3.07183e+07 3.01752e+07 2.96322e+07 2.90893e+07 2.85466e+07
          2.80025e+07 2.74537e+07 2.68994e+07 2.63411e+07 2.57813e+07 2.52238e+07 2.46735e+07 2.41377e+07 2.36263e+07 2.31529e+07 2.27312e+07 2.23697e+07
          2.20536e+07 2.20542e+07 2.23928e+07 2.27859e+07 2.32416e+07 2.37463e+07 2.42836e+07 2.48406e+07 2.54078e+07 2.59787e+07 2.6549e+07 2.71156e+07
          2.76767e+07 2.82317e+07 2.87827e+07 2.93333e+07 2.98841e+07 3.0435e+07 3.0986e+07 3.15372e+07 3.20885e+07 3.26399e+07 3.31914e+07 3.37431e+07
          3.42948e+07 3.48466e+07 3.53985e+07 3.59505e+07 3.65025e+07 3.70546e+07 3.76067e+07 3.8159e+07 3.87112e+07 3.92635e+07 3.98158e+07 4.03681e+07
          4.09205e+07 4.14728e+07 4.20252e+07 4.25776e+07 4.31299e+07 4.36823e+07 4.42346e+07 4.47869e+07 4.53393e+07 4.58922e+07 4.64474e+07 4.70158e+07
          4.76403e+07 4.84832e+07 4.95e+07 4.95e+07 4.84725e+07 4.76622e+07 4.70502e+07 4.64913e+07 4.59444e+07 4.53995e+07 4.4855e+07 4.43106e+07
          4.37661e+07 4.32216e+07 4.26771e+07 4.21326e+07 4.15881e+07 4.10436e+07 4.04991e+07 3.99546e+07 3.94102e+07 3.88657e+07 3.83213e+07 3.77769e+07
          3.72326e+07 3.66884e+07 3.61441e+07 3.56e+07 3.50559e+07 3.45119e+07 3.3968e+07 3.34242e+07 3.28805e+07 3.23369e+07 3.17933e+07 3.12499e+07
          3.07067e+07 3.01635e+07 2.96205e+07 2.90777e+07 2.8535e+07 2.79909e+07 2.7442e+07 2.68877e+07 2.63293e+07 2.57696e+07 2.5212e+07 2.46617e+07
          2.41258e+07 2.36144e+07 2.31409e+07 2.27192e+07 2.23579e+07 2.20408e+07 2.20413e+07 2.2381e+07 2.27738e+07 2.32297e+07 2.37344e+07 2.42718e+07
          2.48288e+07 2.5396e+07 2.5967e+07 2.65373e+07 2.7104e+07 2.76651e+07 2.82201e+07 2.8771e+07 2.93217e+07 2.98724e+07 3.04234e+07 3.09744e+07
          3.15256e+07 3.20769e+07 3.26283e+07 3.31798e+07 3.37314e+07 3.42832e+07 3.4835e+07 3.53869e+07 3.59388e+07 3.64909e+07 3.70429e+07 3.75951e+07
          3.81473e+07 3.86996e+07 3.92518e+07 3.98041e+07 4.03565e+07 4.09088e+07 4.14612e+07 4.20136e+07 4.25659e+07 4.31183e+07 4.36706e+07 4.42229e+07
          4.47753e+07 4.53276e+07 4.58805e+07 4.64358e+07 4.70042e+07 4.76292e+07 4.84575e+07 4.95e+07 4.95e+07 4.84472e+07 4.76518e+07 4.70385e+07
          4.64798e+07 4.59327e+07 4.53879e+07 4.48434e+07 4.42989e+07 4.37545e+07 4.321e+07 4.26655e+07 4.2121e+07 4.15765e+07 4.1032e+07 4.04875e+07
          3.9943e+07 3.93985e+07 3.88541e+07 3.83097e+07 3.77653e+07 3.7221e+07 3.66767e+07 3.61325e+07 3.55884e+07 3.50443e+07 3.45003e+07 3.39564e+07
          3.34126e+07 3.28688e+07 3.23252e+07 3.17817e+07 3.12383e+07 3.0695e+07 3.01519e+07 2.96089e+07 2.9066e+07 2.85233e+07 2.79792e+07 2.74304e+07
          2.6876e+07 2.63176e+07 2.57578e+07 2.52002e+07 2.46498e+07 2.41139e+07 2.36025e+07 2.31289e+07 2.2707e+07 2.23461e+07 2.20276e+07 2.20279e+07
          2.23692e+07 2.27617e+07 2.32177e+07 2.37224e+07 2.42599e+07 2.4817e+07 2.53842e+07 2.59552e+07 2.65256e+07 2.70923e+07 2.76534e+07 2.82084e+07
          2.87594e+07 2.931e+07 2.98608e+07 3.04117e+07 3.09628e+07 3.15139e+07 3.20652e+07 3.26167e+07 3.31682e+07 3.37198e+07 3.42715e+07 3.48233e+07
          3.53752e+07 3.59272e+07 3.64792e+07 3.70313e+07 3.75835e+07 3.81357e+07 3.86879e+07 3.92402e+07 3.97925e+07 4.03448e+07 4.08972e+07 4.14495e+07
          4.20019e+07 4.25543e+07 4.31066e+07 4.3659e+07 4.42113e+07 4.47636e+07 4.5316e+07 4.58688e+07 4.64242e+07 4.69925e+07 4.76186e+07 4.84321e+07
          4.95e+07 4.95e+07 4.84233e+07 4.76415e+07 4.70268e+07 4.64682e+07 4.59211e+07 4.53762e+07 4.48317e+07 4.42873e+07 4.37428e+07 4.31983e+07
          4.26538e+07 4.21093e+07 4.15648e+07 4.10203e+07 4.04758e+07 3.99313e+07 3.93869e+07 3.88424e+07 3.8298e+07 3.77537e+07 3.72093e+07 3.66651e+07
          3.61209e+07 3.55767e+07 3.50326e+07 3.44887e+07 3.39447e+07 3.34009e+07 3.28572e+07 3.23136e+07 3.17701e+07 3.12267e+07 3.06834e+07 3.01403e+07
          2.95973e+07 2.90544e+07 2.85117e+07 2.79676e+07 2.74187e+07 2.68643e+07 2.63059e+07 2.5746e+07 2.51884e+07 2.4638e+07 2.4102e+07 2.35905e+07
          2.31168e+07 2.26948e+07 2.23343e+07 2.20139e+07 2.20141e+07 2.23574e+07 2.27495e+07 2.32056e+07 2.37104e+07 2.4248e+07 2.48052e+07 2.53724e+07
          2.59435e+07 2.65138e+07 2.70806e+07 2.76418e+07 2.81968e+07 2.87478e+07 2.92984e+07 2.98492e+07 3.04001e+07 3.09511e+07 3.15023e+07 3.20536e+07
          3.2605e+07 3.31565e+07 3.37082e+07 3.42599e+07 3.48117e+07 3.53636e+07 3.59155e+07 3.64676e+07 3.70197e+07 3.75718e+07 3.8124e+07 3.86763e+07
          3.92285e+07 3.97808e+07 4.03332e+07 4.08855e+07 4.14379e+07 4.19903e+07 4.25426e+07 4.3095e+07 4.36473e+07 4.41996e+07 4.47519e+07 4.53043e+07
          4.58572e+07 4.64126e+07 4.69808e+07 4.76084e+07 4.84081e+07 4.95e+07 4.94636e+07 4.84083e+07 4.76302e+07 4.70153e+07 4.64565e+07 4.59094e+07
          4.53645e+07 4.48201e+07 4.42756e+07 4.37312e+07 4.31867e+07 4.26422e+07 4.20977e+07 4.15532e+07 4.10087e+07 4.04642e+07 3.99197e+07 3.93752e+07
          3.88308e+07 3.82864e+07 3.7742e+07 3.71977e+07 3.66534e+07 3.61092e+07 3.55651e+07 3.5021e+07 3.4477e+07 3.39331e+07 3.33893e+07 3.28456e+07
          3.23019e+07 3.17584e+07 3.1215e+07 3.06718e+07 3.01286e+07 2.95856e+07 2.90428e+07 2.85001e+07 2.7956e+07 2.7407e+07 2.68526e+07 2.62941e+07
          2.57343e+07 2.51766e+07 2.46261e+07 2.409e+07 2.35784e+07 2.31047e+07 2.26825e+07 2.23225e+07 2.2e+07 2.2e+07 2.23456e+07 2.27372e+07
          2.31935e+07 2.36984e+07 2.42361e+07 2.47933e+07 2.53606e+07 2.59317e+07 2.65021e+07 2.70689e+07 2.76301e+07 2.81852e+07 2.87362e+07 2.92868e+07
          2.98376e+07 3.03885e+07 3.09395e+07 3.14907e+07 3.2042e+07 3.25934e+07 3.31449e+07 3.36965e+07 3.42482e+07 3.48e+07 3.53519e+07 3.59039e+07
          3.64559e+07 3.7008e+07 3.75602e+07 3.81124e+07 3.86646e+07 3.92169e+07 3.97692e+07 4.03215e+07 4.08739e+07 4.14262e+07 4.19786e+07 4.2531e+07
          4.30833e+07 4.36357e+07 4.4188e+07 4.47403e+07 4.52927e+07 4.58455e+07 4.6401e+07 4.69693e+07 4.7597e+07 4.83928e+07 4.94635e+07 4.94297e+07
          4.83955e+07 4.76188e+07 4.70038e+07 4.64449e+07 4.58978e+07 4.53529e+07 4.48084e+07 4.4264e+07 4.37195e+07 4.3175e+07 4.26305e+07 4.2086e+07
          4.15415e+07 4.0997e+07 4.04525e+07 3.9908e+07 3.93636e+07 3.88191e+07 3.82747e+07 3.77304e+07 3.7186e+07 3.66418e+07 3.60976e+07 3.55534e+07
          3.50094e+07 3.44654e+07 3.39215e+07 3.33776e+07 3.28339e+07 3.22903e+07 3.17468e+07 3.12034e+07 3.06601e+07 3.0117e+07 2.9574e+07 2.90312e+07
          2.84884e+07 2.79443e+07 2.73954e+07 2.68408e+07 2.62824e+07 2.57225e+07 2.51647e+07 2.46142e+07 2.4078e+07 2.35663e+07 2.30924e+07 2.26706e+07
          2.23083e+07 2.2e+07 2.2e+07 2.23313e+07 2.27252e+07 2.31813e+07 2.36864e+07 2.42241e+07 2.47814e+07 2.53488e+07 2.59199e+07 2.64904e+07
          2.70572e+07 2.76184e+07 2.81735e+07 2.87245e+07 2.92752e+07 2.98259e+07 3.03768e+07 3.09279e+07 3.1479e+07 3.20303e+07 3.25817e+07 3.31333e+07
          3.36849e+07 3.42366e+07 3.47884e+07 3.53403e+07 3.58923e+07 3.64443e+07 3.69964e+07 3.75485e+07 3.81007e+07 3.8653e+07 3.92052e+07 3.97575e+07
          4.03099e+07 4.08622e+07 4.14146e+07 4.19669e+07 4.25193e+07 4.30717e+07 4.3624e+07 4.41763e+07 4.47286e+07 4.5281e+07 4.58339e+07 4.63893e+07
          4.69578e+07 4.75856e+07 4.83796e+07 4.94295e+07 4.93983e+07 4.83841e+07 4.76072e+07 4.69922e+07 4.64332e+07 4.58861e+07 4.53412e+07 4.47967e+07
          4.42523e+07 4.37078e+07 4.31634e+07 4.26189e+07 4.20744e+07 4.15299e+07 4.09854e+07 4.04409e+07 3.98964e+07 3.93519e+07 3.88075e+07 3.82631e+07
          3.77187e+07 3.71744e+07 3.66301e+07 3.60859e+07 3.55418e+07 3.49977e+07 3.44537e+07 3.39098e+07 3.3366e+07 3.28223e+07 3.22787e+07 3.17352e+07
          3.11918e+07 3.06485e+07 3.01054e+07 2.95624e+07 2.90195e+07 2.84768e+07 2.79327e+07 2.73837e+07 2.68291e+07 2.62706e+07 2.57107e+07 2.51529e+07
          2.46023e+07 2.4066e+07 2.35542e+07 2.308e+07 2.26586e+07 2.2294e+07 2.2e+07 2.2e+07 2.23169e+07 2.27131e+07 2.3169e+07 2.36743e+07
          2.42121e+07 2.47695e+07 2.5337e+07 2.59082e+07 2.64787e+07 2.70455e+07 2.76068e+07 2.81619e+07 2.87129e+07 2.92635e+07 2.98143e+07 3.03652e+07
          3.09162e+07 3.14674e+07 3.20187e+07 3.25701e+07 3.31216e+07 3.36732e+07 3.4225e+07 3.47768e+07 3.53286e+07 3.58806e+07 3.64326e+07 3.69847e+07
          3.75369e+07 3.80891e+07 3.86413e+07 3.91936e+07 3.97459e+07 4.02982e+07 4.08506e+07 4.14029e+07 4.19553e+07 4.25077e+07 4.306e+07 4.36123e+07
          4.41647e+07 4.4717e+07 4.52694e+07 4.58222e+07 4.63777e+07 4.69463e+07 4.75741e+07 4.83681e+07 4.93981e+07 4.93696e+07 4.83736e+07 4.75955e+07
          4.69807e+07 4.64216e+07 4.58744e+07 4.53296e+07 4.47851e+07 4.42406e+07 4.36962e+07 4.31517e+07 4.26072e+07 4.20627e+07 4.15182e+07 4.09737e+07
          4.04292e+07 3.98847e+07 3.93403e+07 3.87958e+07 3.82514e+07 3.77071e+07 3.71628e+07 3.66185e+07 3.60743e+07 3.55302e+07 3.49861e+07 3.44421e+07
          3.38982e+07 3.33544e+07 3.28107e+07 3.2267e+07 3.17235e+07 3.11802e+07 3.06369e+07 3.00937e+07 2.95507e+07 2.90079e+07 2.84652e+07 2.7921e+07
          2.7372e+07 2.68174e+07 2.62589e+07 2.56989e+07 2.5141e+07 2.45903e+07 2.4054e+07 2.3542e+07 2.30676e+07 2.26465e+07 2.22796e+07 2.2e+07
          2.2e+07 2.23024e+07 2.2701e+07 2.31566e+07 2.36621e+07 2.42001e+07 2.47576e+07 2.53251e+07 2.58964e+07 2.64669e+07 2.70338e+07 2.75951e+07
          2.81502e+07 2.87013e+07 2.92519e+07 2.98027e+07 3.03536e+07 3.09046e+07 3.14558e+07 3.20071e+07 3.25585e+07 3.311e+07 3.36616e+07 3.42133e+07
          3.47651e+07 3.5317e+07 3.5869e+07 3.6421e+07 3.69731e+07 3.75252e+07 3.80774e+07 3.86297e+07 3.91819e+07 3.97343e+07 4.02866e+07 4.08389e+07
          4.13913e+07 4.19436e+07 4.2496e+07 4.30484e+07 4.36007e+07 4.4153e+07 4.47053e+07 4.52577e+07 4.58106e+07 4.6366e+07 4.69347e+07 4.75623e+07
          4.83575e+07 4.93694e+07 4.93437e+07 4.83639e+07 4.75835e+07 4.69691e+07 4.64099e+07 4.58628e+07 4.53179e+07 4.47734e+07 4.4229e+07 4.36845e+07
          4.31401e+07 4.25956e+07 4.20511e+07 4.15066e+07 4.09621e+07 4.04176e+07 3.98731e+07 3.93286e+07 3.87842e+07 3.82398e+07 3.76954e+07 3.71511e+07
          3.66069e+07 3.60627e+07 3.55185e+07 3.49744e+07 3.44305e+07 3.38866e+07 3.33427e+07 3.2799e+07 3.22554e+07 3.17119e+07 3.11685e+07 3.06253e+07
          3.00821e+07 2.95391e+07 2.89963e+07 2.84535e+07 2.79094e+07 2.73603e+07 2.68057e+07 2.62471e+07 2.5687e+07 2.51291e+07 2.45783e+07 2.40419e+07
          2.35297e+07 2.30553e+07 2.26338e+07 2.22681e+07 2.2e+07 2.2e+07 2.22892e+07 2.26886e+07 2.31442e+07 2.36499e+07 2.41881e+07 2.47457e+07
          2.53133e+07 2.58846e+07 2.64552e+07 2.70221e+07 2.75835e+07 2.81386e+07 2.86896e+07 2.92403e+07 2.9791e+07 3.03419e+07 3.0893e+07 3.14441e+07
          3.19954e+07 3.25468e+07 3.30984e+07 3.365e+07 3.42017e+07 3.47535e+07 3.53054e+07 3.58573e+07 3.64094e+07 3.69614e+07 3.75136e+07 3.80658e+07
          3.8618e+07 3.91703e+07 3.97226e+07 4.02749e+07 4.08273e+07 4.13796e+07 4.1932e+07 4.24843e+07 4.30367e+07 4.3589e+07 4.41413e+07 4.46937e+07
          4.5246e+07 4.57989e+07 4.63544e+07 4.69231e+07 4.75504e+07 4.83477e+07 4.93435e+07
        </DataArray>
        <DataArray type="Float32" Name="pressure_oil" NumberOfComponents="1" format="ascii">
          4.95e+07 4.85473e+07 4.95e+07 4.85234e+07 4.7709e+07 4.76876e+07 4.70841e+07 4.7073e+07 4.65264e+07 4.65146e+07 4.59793e+07 4.59677e+07
          4.54345e+07 4.54228e+07 4.489e+07 4.48783e+07 4.43456e+07 4.43339e+07 4.38011e+07 4.37894e+07 4.32566e+07 4.3245e+07 4.27121e+07 4.27005e+07
          4.21676e+07 4.21559e+07 4.16231e+07 4.16114e+07 4.10786e+07 4.10669e+07 4.05341e+07 4.05224e+07 3.99896e+07 3.99779e+07 3.94451e+07 3.94335e+07
          3.89007e+07 3.8889e+07 3.83563e+07 3.83446e+07 3.78119e+07 3.78002e+07 3.72676e+07 3.72559e+07 3.67233e+07 3.67116e+07 3.61791e+07 3.61674e+07
          3.56349e+07 3.56233e+07 3.50908e+07 3.50792e+07 3.45468e+07 3.45352e+07 3.40029e+07 3.39913e+07 3.34591e+07 3.34475e+07 3.29154e+07 3.29037e+07
          3.23718e+07 3.23601e+07 3.18282e+07 3.18166e+07 3.12848e+07 3.12732e+07 3.07416e+07 3.07299e+07 3.01984e+07 3.01868e+07 2.96554e+07 2.96438e+07
          2.91126e+07 2.91009e+07 2.85698e+07 2.85582e+07 2.80258e+07 2.80142e+07 2.7477e+07 2.74654e+07 2.69227e+07 2.6911e+07 2.63645e+07 2.63528e+07
          2.58048e+07 2.57931e+07 2.52473e+07 2.52356e+07 2.46971e+07 2.46853e+07 2.41613e+07 2.41495e+07 2.365e+07 2.36382e+07 2.31766e+07 2.31648e+07
          2.2755e+07 2.27431e+07 2.23933e+07 2.23815e+07 2.20781e+07 2.20661e+07 2.20788e+07 2.20667e+07 2.24165e+07 2.24046e+07 2.28097e+07 2.27978e+07
          2.32654e+07 2.32535e+07 2.37699e+07 2.37581e+07 2.43073e+07 2.42955e+07 2.48642e+07 2.48524e+07 2.54313e+07 2.54195e+07 2.60022e+07 2.59904e+07
          2.65724e+07 2.65607e+07 2.7139e+07 2.71273e+07 2.77001e+07 2.76884e+07 2.8255e+07 2.82433e+07 2.88059e+07 2.87943e+07 2.93566e+07 2.93449e+07
          2.99073e+07 2.98957e+07 3.04582e+07 3.04466e+07 3.10093e+07 3.09977e+07 3.15605e+07 3.15488e+07 3.21118e+07 3.21001e+07 3.26632e+07 3.26516e+07
          3.32147e+07 3.32031e+07 3.37663e+07 3.37547e+07 3.43181e+07 3.43064e+07 3.48699e+07 3.48582e+07 3.54218e+07 3.54101e+07 3.59737e+07 3.59621e+07
          3.65258e+07 3.65141e+07 3.70779e+07 3.70662e+07 3.763e+07 3.76184e+07 3.81822e+07 3.81706e+07 3.87345e+07 3.87228e+07 3.92868e+07 3.92751e+07
          3.98391e+07 3.98274e+07 4.03914e+07 4.03798e+07 4.09438e+07 4.09321e+07 4.14962e+07 4.14845e+07 4.20485e+07 4.20369e+07 4.26009e+07 4.25892e+07
          4.31532e+07 4.31416e+07 4.37056e+07 4.36939e+07 4.42579e+07 4.42463e+07 4.48102e+07 4.47986e+07 4.53626e+07 4.5351e+07 4.59154e+07 4.59038e+07
          4.64708e+07 4.64591e+07 4.70381e+07 4.70269e+07 4.76767e+07 4.76553e+07 4.85321e+07 4.85083e+07 4.95e+07 4.95e+07 4.95e+07 4.84983e+07
          4.76732e+07 4.70618e+07 4.65029e+07 4.5956e+07 4.54112e+07 4.48667e+07 4.43222e+07 4.37778e+07 4.32333e+07 4.26888e+07 4.21443e+07 4.15998e+07
          4.10553e+07 4.05108e+07 3.99663e+07 3.94218e+07 3.88774e+07 3.8333e+07 3.77886e+07 3.72443e+07 3.67e+07 3.61558e+07 3.56116e+07 3.50676e+07
          3.45236e+07 3.39797e+07 3.34358e+07 3.28921e+07 3.23485e+07 3.1805e+07 3.12616e+07 3.07183e+07 3.01752e+07 2.96322e+07 2.90893e+07 2.85466e+07
          2.80025e+07 2.74537e+07 2.68994e+07 2.63411e+07 2.57813e+07 2.52238e+07 2.46735e+07 2.41377e+07 2.36263e+07 2.31529e+07 2.27312e+07 2.23697e+07
          2.20536e+07 2.20542e+07 2.23928e+07 2.27859e+07 2.32416e+07 2.37463e+07 2.42836e+07 2.48406e+07 2.54078e+07 2.59787e+07 2.6549e+07 2.71156e+07
          2.76767e+07 2.82317e+07 2.87827e+07 2.93333e+07 2.98841e+07 3.0435e+07 3.0986e+07 3.15372e+07 3.20885e+07 3.26399e+07 3.31914e+07 3.37431e+07
          3.42948e+07 3.48466e+07 3.53985e+07 3.59505e+07 3.65025e+07 3.70546e+07 3.76067e+07 3.8159e+07 3.87112e+07 3.92635e+07 3.98158e+07 4.03681e+07
          4.09205e+07 4.14728e+07 4.20252e+07 4.25776e+07 4.31299e+07 4.36823e+07 4.42346e+07 4.47869e+07 4.53393e+07 4.58922e+07 4.64474e+07 4.70158e+07
          4.76403e+07 4.84832e+07 4.95e+07 4.95e+07 4.84725e+07 4.76622e+07 4.70502e+07 4.64913e+07 4.59444e+07 4.53995e+07 4.4855e+07 4.43106e+07
          4.37661e+07 4.32216e+07 4.26771e+07 4.21326e+07 4.15881e+07 4.10436e+07 4.04991e+07 3.99546e+07 3.94102e+07 3.88657e+07 3.83213e+07 3.77769e+07
          3.72326e+07 3.66884e+07 3.61441e+07 3.56e+07 3.50559e+07 3.45119e+07 3.3968e+07 3.34242e+07 3.28805e+07 3.23369e+07 3.17933e+07 3.12499e+07
          3.07067e+07 3.01635e+07 2.96205e+07 2.90777e+07 2.8535e+07 2.79909e+07 2.7442e+07 2.68877e+07 2.63293e+07 2.57696e+07 2.5212e+07 2.46617e+07
          2.41258e+07 2.36144e+07 2.31409e+07 2.27192e+07 2.23579e+07 2.20408e+07 2.20413e+07 2.2381e+07 2.27738e+07 2.32297e+07 2.37344e+07 2.42718e+07
          2.48288e+07 2.5396e+07 2.5967e+07 2.65373e+07 2.7104e+07 2.76651e+07 2.82201e+07 2.8771e+07 2.93217e+07 2.98724e+07 3.04234e+07 3.09744e+07
          3.15256e+07 3.20769e+07 3.26283e+07 3.31798e+07 3.37314e+07 3.42832e+07 3.4835e+07 3.53869e+07 3.59388e+07 3.64909e+07 3.70429e+07 3.75951e+07
          3.81473e+07 3.86996e+07 3.92518e+07 3.98041e+07 4.03565e+07 4.09088e+07 4.14612e+07 4.20136e+07 4.25659e+07 4.31183e+07 4.36706e+07 4.42229e+07
          4.47753e+07 4.53276e+07 4.58805e+07 4.64358e+07 4.70042e+07 4.76292e+07 4.84575e+07 4.95e+07 4.95e+07 4.84472e+07 4.76518e+07 4.70385e+07
          4.64798e+07 4.59327e+07 4.53879e+07 4.48434e+07 4.42989e+07 4.37545e+07 4.321e+07 4.26655e+07 4.2121e+07 4.15765e+07 4.1032e+07 4.04875e+07
          3.9943e+07 3.93985e+07 3.88541e+07 3.83097e+07 3.77653e+07 3.7221e+07 3.66767e+07 3.61325e+07 3.55884e+07 3.50443e+07 3.45003e+07 3.39564e+07
          3.34126e+07 3.28688e+07 3.23252e+07 3.17817e+07 3.12383e+07 3.0695e+07 3.01519e+07 2.96089e+07 2.9066e+07 2.85233e+07 2.79792e+07 2.74304e+07
          2.6876e+07 2.63176e+07 2.57578e+07 2.52002e+07 2.46498e+07 2.41139e+07 2.36025e+07 2.31289e+07 2.2707e+07 2.23461e+07 2.20276e+07 2.20279e+07
          2.23692e+07 2.27617e+07 2.32177e+07 2.37224e+07 2.42599e+07 2.4817e+07 2.53842e+07 2.59552e+07 2.65256e+07 2.70923e+07 2.76534e+07 2.82084e+07
          2.87594e+07 2.931e+07 2.98608e+07 3.04117e+07 3.09628e+07 3.15139e+07 3.20652e+07 3.26167e+07 3.31682e+07 3.37198e+07 3.42715e+07 3.48233e+07
          3.53752e+07 3.59272e+07 3.64792e+07 3.70313e+07 3.75835e+07 3.81357e+07 3.86879e+07 3.92402e+07 3.97925e+07 4.03448e+07 4.08972e+07 4.14495e+07
          4.20019e+07 4.25543e+07 4.31066e+07 4.3659e+07 4.42113e+07 4.47636e+07 4.5316e+07 4.58688e+07 4.64242e+07 4.69925e+07 4.76186e+07 4.84321e+07
          4.95e+07 4.95e+07 4.84233e+07 4.76415e+07 4.70268e+07 4.64682e+07 4.59211e+07 4.53762e+07 4.48317e+07 4.42873e+07 4.37428e+07 4.31983e+07
          4.26538e+07 4.21093e+07 4.15648e+07 4.10203e+07 4.04758e+07 3.99313e+07 3.93869e+07 3.88424e+07 3.8298e+07 3.77537e+07 3.72093e+07 3.66651e+07
          3.61209e+07 3.55767e+07 3.50326e+07 3.44887e+07 3.39447e+07 3.34009e+07 3.28572e+07 3.23136e+07 3.17701e+07 3.12267e+07 3.06834e+07 3.01403e+07
          2.95973e+07 2.90544e+07 2.85117e+07 2.79676e+07 2.74187e+07 2.68643e+07 2.63059e+07 2.5746e+07 2.51884e+07 2.4638e+07 2.4102e+07 2.35905e+07
          2.31168e+07 2.26948e+07 2.23343e+07 2.20139e+07 2.20141e+07 2.23574e+07 2.27495e+07 2.32056e+07 2.37104e+07 2.4248e+07 2.48052e+07 2.53724e+07
          2.59435e+07 2.65138e+07 2.70806e+07 2.76418e+07 2.81968e+07 2.87478e+07 2.92984e+07 2.98492e+07 3.04001e+07 3.09511e+07 3.15023e+07 3.20536e+07
          3.2605e+07 3.31565e+07 3.37082e+07 3.42599e+07 3.48117e+07 3.53636e+07 3.59155e+07 3.64676e+07 3.70197e+07 3.75718e+07 3.8124e+07 3.86763e+07
          3.92285e+07 3.97808e+07 4.03332e+07 4.08855e+07 4.14379e+07 4.19903e+07 4.25426e+07 4.3095e+07 4.36473e+07 4.41996e+07 4.47519e+07 4.53043e+07
          4.58572e+07 4.64126e+07 4.69808e+07 4.76084e+07 4.84081e+07 4.95e+07 4.94636e+07 4.84083e+07 4.76302e+07 4.70153e+07 4.64565e+07 4.59094e+07
          4.53645e+07 4.48201e+07 4.42756e+07 4.37312e+07 4.31867e+07 4.26422e+07 4.20977e+07 4.15532e+07 4.10087e+07 4.04642e+07 3.99197e+07 3.93752e+07
          3.88308e+07 3.82864e+07 3.7742e+07 3.71977e+07 3.66534e+07 3.61092e+07 3.55651e+07 3.5021e+07 3.4477e+07 3.39331e+07 3.33893e+07 3.28456e+07
          3.23019e+07 3.17584e+07 3.1215e+07 3.06718e+07 3.01286e+07 2.95856e+07 2.90428e+07 2.85001e+07 2.7956e+07 2.7407e+07 2.68526e+07 2.62941e+07
          2.57343e+07 2.51766e+07 2.46261e+07 2.409e+07 2.35784e+07 2.31047e+07 2.26825e+07 2.23225e+07 2.2e+07 2.2e+07 2.23456e+07 2.27372e+07
          2.31935e+07 2.36984e+07 2.42361e+07 2.47933e+07 2.53606e+07 2.59317e+07 2.65021e+07 2.70689e+07 2.76301e+07 2.81852e+07 2.87362e+07 2.92868e+07
          2.98376e+07 3.03885e+07 3.09395e+07 3.14907e+07 3.2042e+07 3.25934e+07 3.31449e+07 3.36965e+07 3.42482e+07 3.48e+07 3.53519e+07 3.59039e+07
          3.64559e+07 3.7008e+07 3.75602e+07 3.81124e+07 3.86646e+07 3.92169e+07 3.97692e+07 4.03215e+07 4.08739e+07 4.14262e+07 4.19786e+07 4.2531e+07
          4.30833e+07 4.36357e+07 4.4188e+07 4.47403e+07 4.52927e+07 4.58455e+07 4.6401e+07 4.69693e+07 4.7597e+07 4.83928e+07 4.94635e+07 4.94297e+07
          4.83955e+07 4.76188e+07 4.70038e+07 4.64449e+07 4.58978e+07 4.53529e+07 4.48084e+07 4.4264e+07 4.37195e+07 4.3175e+07 4.26305e+07 4.2086e+07
          4.15415e+07 4.0997e+07 4.04525e+07 3.9908e+07 3.93636e+07 3.88191e+07 3.82747e+07 3.77304e+07 3.7186e+07 3.66418e+07 3.60976e+07 3.55534e+07
          3.50094e+07 3.44654e+07 3.39215e+07 3.33776e+07 3.28339e+07 3.22903e+07 3.17468e+07 3.12034e+07 3.06601e+07 3.0117e+07 2.9574e+07 2.90312e+07
          2.84884e+07 2.79443e+07 2.73954e+07 2.68408e+07 2.62824e+07 2.57225e+07 2.51647e+07 2.46142e+07 2.4078e+07 2.35663e+07 2.30924e+07 2.26706e+07
          2.23083e+07 2.2e+07 2.2e+07 2.23313e+07 2.27252e+07 2.31813e+07 2.36864e+07 2.42241e+07 2.47814e+07 2.53488e+07 2.59199e+07 2.64904e+07
          2.70572e+07 2.76184e+07 2.81735e+07 2.87245e+07 2.92752e+07 2.98259e+07 3.03768e+07 3.09279e+07 3.1479e+07 3.20303e+07 3.25817e+07 3.31333e+07
          3.36849e+07 3.42366e+07 3.47884e+07 3.53403e+07 3.58923e+07 3.64443e+07 3.69964e+07 3.75485e+07 3.81007e+07 3.8653e+07 3.92052e+07 3.97575e+07
          4.03099e+07 4.08622e+07 4.14146e+07 4.19669e+07 4.25193e+07 4.30717e+07 4.3624e+07 4.41763e+07 4.47286e+07 4.5281e+07 4.58339e+07 4.63893e+07
          4.69578e+07 4.75856e+07 4.83796e+07 4.94295e+07 4.93983e+07 4.83841e+07 4.76072e+07 4.69922e+07 4.64332e+07 4.58861e+07 4.53412e+07 4.47967e+07
          4.42523e+07 4.37078e+07 4.31634e+07 4.26189e+07 4.20744e+07 4.15299e+07 4.09854e+07 4.04409e+07 3.98964e+07 3.93519e+07 3.88075e+07 3.82631e+07
          3.77187e+07 3.71744e+07 3.66301e+07 3.60859e+07 3.55418e+07 3.49977e+07 3.44537e+07 3.39098e+07 3.3366e+07 3.28223e+07 3.22787e+07 3.17352e+07
          3.11918e+07 3.06485e+07 3.01054e+07 2.95624e+07 2.90195e+07 2.84768e+07 2.79327e+07 2.73837e+07 2.68291e+07 2.62706e+07 2.57107e+07 2.51529e+07
          2.46023e+07 2.4066e+07 2.35542e+07 2.308e+07 2.26586e+07 2.2294e+07 2.2e+07 2.2e+07 2.23169e+07 2.27131e+07 2.3169e+07 2.36743e+07
          2.42121e+07 2.47695e+07 2.5337e+07 2.59082e+07 2.64787e+07 2.70455e+07 2.76068e+07 2.81619e+07 2.87129e+07 2.92635e+07 2.98143e+07 3.03652e+07
          3.09162e+07 3.14674e+07 3.20187e+07 3.25701e+07 3.31216e+07 3.36732e+07 3.4225e+07 3.47768e+07 3.53286e+07 3.58806e+07 3.64326e+07 3.69847e+07
          3.75369e+07 3.80891e+07 3.86413e+07 3.91936e+07 3.97459e+07 4.02982e+07 4.08506e+07 4.14029e+07 4.19553e+07 4.25077e+07 4.306e+07 4.36123e+07
          4.41647e+07 4.4717e+07 4.52694e+07 4.58222e+07 4.63777e+07 4.69463e+07 4.75741e+07 4.83681e+07 4.93981e+07 4.93696e+07 4.83736e+07 4.75955e+07
          4.69807e+07 4.64216e+07 4.58744e+07 4.53296e+07 4.47851e+07 4.42406e+07 4.36962e+07 4.31517e+07 4.26072e+07 4.20627e+07 4.15182e+07 4.09737e+07
          4.04292e+07 3.98847e+07 3.93403e+07 3.87958e+07 3.82514e+07 3.77071e+07 3.71628e+07 3.66185e+07 3.60743e+07 3.55302e+07 3.49861e+07 3.44421e+07
          3.38982e+07 3.33544e+07 3.28107e+07 3.2267e+07 3.17235e+07 3.11802e+07 3.06369e+07 3.00937e+07 2.95507e+07 2.90079e+07 2.84652e+07 2.7921e+07
          2.7372e+07 2.68174e+07 2.62589e+07 2.56989e+07 2.5141e+07 2.45903e+07 2.4054e+07 2.3542e+07 2.30676e+07 2.26465e+07 2.22796e+07 2.2e+07
          2.2e+07 2.23024e+07 2.2701e+07 2.31566e+07 2.36621e+07 2.42001e+07 2.47576e+07 2.53251e+07 2.58964e+07 2.64669e+07 2.70338e+07 2.75951e+07
          2.81502e+07 2.87013e+07 2.92519e+07 2.98027e+07 3.03536e+07 3.09046e+07 3.14558e+07 3.20071e+07 3.25585e+07 3.311e+07 3.36616e+07 3.42133e+07
          3.47651e+07 3.5317e+07 3.5869e+07 3.6421e+07 3.69731e+07 3.75252e+07 3.80774e+07 3.86297e+07 3.91819e+07 3.97343e+07 4.02866e+07 4.08389e+07
          4.13913e+07 4.19436e+07 4.2496e+07 4.30484e+07 4.36007e+07 4.4153e+07 4.47053e+07 4.52577e+07 4.58106e+07 4.6366e+07 4.69347e+07 4.75623e+07
          4.83575e+07 4.93694e+07 4.93437e+07 4.83639e+07 4.75835e+07 4.69691e+07 4.64099e+07 4.58628e+07 4.53179e+07 4.47734e+07 4.4229e+07 4.36845e+07
          4.31401e+07 4.25956e+07 4.20511e+07 4.15066e+07 4.09621e+07 4.04176e+07 3.98731e+07 3.93286e+07 3.87842e+07 3.82398e+07 3.76954e+07 3.71511e+07
          3.66069e+07 3.60627e+07 3.55185e+07 3.49744e+07 3.44305e+07 3.38866e+07 3.33427e+07 3.2799e+07 3.22554e+07 3.17119e+07 3.11685e+07 3.06253e+07
          3.00821e+07 2.95391e+07 2.89963e+07 2.84535e+07 2.79094e+07 2.73603e+07 2.68057e+07 2.62471e+07 2.5687e+07 2.51291e+07 2.45783e+07 2.40419e+07
          2.35297e+07 2.30553e+07 2.26338e+07 2.22681e+07 2.2e+07 2.2e+07 2.22892e+07 2.26886e+07 2.31442e+07 2.36499e+07 2.41881e+07 2.47457e+07
          2.53133e+07 2.58846e+07 2.64552e+07 2.70221e+07 2.75835e+07 2.81386e+07 2.86896e+07 2.92403e+07 2.9791e+07 3.03419e+07 3.0893e+07 3.14441e+07
          3.19954e+07 3.25468e+07 3.30984e+07 3.365e+07 3.42017e+07 3.47535e+07 3.53054e+07 3.58573e+07 3.64094e+07 3.69614e+07 3.75136e+07 3.80658e+07
          3.8618e+07 3.91703e+07 3.97226e+07 4.02749e+07 4.08273e+07 4.13796e+07 4.1932e+07 4.24843e+07 4.30367e+07 4.3589e+07 4.41413e+07 4.46937e+07
          4.5246e+07 4.57989e+07 4.63544e+07 4.69231e+07 4.75504e+07 4.83477e+07 4.93435e+07
        </DataArray>
        <DataArray type="Float32" Name="pressure_gas" NumberOfComponents="1" format="ascii">
          4.95e+07 4.85473e+07 4.95e+07 4.85234e+07 4.7709e+07 4.76876e+07 4.70841e+07 4.7073e+07 4.65264e+07 4.65146e+07 4.59793e+07 4.59677e+07
          4.54345e+07 4.54228e+07 4.489e+07 4.48783e+07 4.43456e+07 4.43339e+07 4.38011e+07 4.37894e+07 4.32566e+07 4.3245e+07 4.27121e+07 4.27005e+07
          4.21676e+07 4.21559e+07 4.16231e+07 4.16114e+07 4.10786e+07 4.10669e+07 4.05341e+07 4.05224e+07 3.99896e+07 3.99779e+07 3.94451e+07 3.94335e+07
          3.89007e+07 3.8889e+07 3.83563e+07 3.83446e+07 3.78119e+07 3.78002e+07 3.72676e+07 3.72559e+07 3.67233e+07 3.67116e+07 3.61791e+07 3.61674e+07
          3.56349e+07 3.56233e+07 3.50908e+07 3.50792e+07 3.45468e+07 3.45352e+07 3.40029e+07 3.39913e+07 3.34591e+07 3.34475e+07 3.29154e+07 3.29037e+07
          3.23718e+07 3.23601e+07 3.18282e+07 3.18166e+07 3.12848e+07 3.12732e+07 3.07416e+07 3.07299e+07 3.01984e+07 3.01868e+07 2.96554e+07 2.96438e+07
          2.91126e+07 2.91009e+07 2.85698e+07 2.85582e+07 2.80258e+07 2.80142e+07 2.7477e+07 2.74654e+07 2.69227e+07 2.6911e+07 2.63645e+07 2.63528e+07
          2.58048e+07 2.57931e+07 2.52473e+07 2.52356e+07 2.46971e+07 2.46853e+07 2.41613e+07 2.41495e+07 2.365e+07 2.36382e+07 2.31766e+07 2.31648e+07