<?xml version="1.0"?>
<VTKFile type="UnstructuredGrid" version="0.1" byte_order="LittleEndian">
  <UnstructuredGrid>
    <Piece NumberOfCells="1000" NumberOfPoints="1111">
      <PointData Scalars="pressure_water">
        <DataArray type="Float32" Name="pressure_water" NumberOfComponents="1" format="ascii">
          4.95e+07 4.85381e+07 4.95e+07 4.85175e+07 4.77231e+07 4.77026e+07 4.70995e+07 4.70872e+07 4.65415e+07 4.65299e+07 4.59946e+07 4.59829e+07
          4.54492e+07 4.54376e+07 4.49041e+07 4.48924e+07 4.43589e+07 4.43473e+07 4.38138e+07 4.38021e+07 4.32686e+07 4.32569e+07 4.27233e+07 4.27117e+07
          4.21781e+07 4.21664e+07 4.16328e+07 4.16212e+07 4.10876e+07 4.10759e+07 4.05423e+07 4.05307e+07 3.99971e+07 3.99854e+07 3.94519e+07 3.94402e+07
          3.89067e+07 3.8895e+07 3.83615e+07 3.83498e+07 3.78163e+07 3.78047e+07 3.72712e+07 3.72596e+07 3.67262e+07 3.67145e+07 3.61812e+07 3.61695e+07
          3.56362e+07 3.56246e+07 3.50914e+07 3.50797e+07 3.45465e+07 3.45349e+07 3.40018e+07 3.39902e+07 3.34572e+07 3.34455e+07 3.29126e+07 3.2901e+07
          3.23681e+07 3.23565e+07 3.18237e+07 3.18121e+07 3.12795e+07 3.12679e+07 3.07353e+07 3.07237e+07 3.01913e+07 3.01797e+07 2.96474e+07 2.96358e+07
          2.91036e+07 2.9092e+07 2.856e+07 2.85484e+07 2.80149e+07 2.80033e+07 2.74654e+07 2.74538e+07 2.69107e+07 2.6899e+07 2.63523e+07 2.63406e+07
          2.57927e+07 2.5781e+07 2.52356e+07 2.52239e+07 2.46865e+07 2.46747e+07 2.41528e+07 2.4141e+07 2.36447e+07 2.36329e+07 2.31752e+07 2.31634e+07
          2.27566e+07 2.27448e+07 2.23948e+07 2.2383e+07 2.20773e+07 2.20653e+07 2.20777e+07 2.20657e+07 2.24175e+07 2.24057e+07 2.28099e+07 2.27981e+07
          2.32623e+07 2.32505e+07 2.37629e+07 2.37511e+07 2.4297e+07 2.42852e+07 2.48516e+07 2.48398e+07 2.54172e+07 2.54054e+07 2.59873e+07 2.59756e+07
          2.65575e+07 2.65458e+07 2.71246e+07 2.71129e+07 2.76866e+07 2.76749e+07 2.82427e+07 2.82311e+07 2.87948e+07 2.87832e+07 2.93465e+07 2.93349e+07
          2.98984e+07 2.98867e+07 3.04503e+07 3.04387e+07 3.10024e+07 3.09908e+07 3.15546e+07 3.1543e+07 3.21069e+07 3.20953e+07 3.26593e+07 3.26477e+07
          3.32118e+07 3.32002e+07 3.37645e+07 3.37528e+07 3.43172e+07 3.43055e+07 3.48699e+07 3.48583e+07 3.54228e+07 3.54112e+07 3.59757e+07 3.59641e+07
          3.65287e+07 3.65171e+07 3.70818e+07 3.70701e+07 3.76348e+07 3.76232e+07 3.8188e+07 3.81763e+07 3.87412e+07 3.87295e+07 3.92944e+07 3.92827e+07
          3.98476e+07 3.98359e+07 4.04008e+07 4.03892e+07 4.09541e+07 4.09424e+07 4.15073e+07 4.14957e+07 4.20606e+07 4.2049e+07 4.26139e+07 4.26022e+07
          4.31671e+07 4.31554e+07 4.37203e+07 4.37087e+07 4.42735e+07 4.42618e+07 4.48267e+07 4.4815e+07 4.53798e+07 4.53682e+07 4.59332e+07 4.59215e+07
          4.64883e+07 4.64767e+07 4.70553e+07 4.7043e+07 4.7691e+07 4.76705e+07 4.85225e+07 4.8502e+07 4.95e+07 4.95e+07 4.95e+07 4.84968e+07
          4.76874e+07 4.70756e+07 4.65182e+07 4.59713e+07 4.54259e+07 4.48808e+07 4.43356e+07 4.37904e+07 4.32452e+07 4.27e+07 4.21548e+07 4.16095e+07
          4.10643e+07 4.0519e+07 3.99738e+07 3.94286e+07 3.88834e+07 3.83382e+07 3.7793e+07 3.72479e+07 3.67029e+07 3.61579e+07 3.5613e+07 3.50681e+07
          3.45233e+07 3.39785e+07 3.34339e+07 3.28893e+07 3.23448e+07 3.18005e+07 3.12562e+07 3.07121e+07 3.0168e+07 2.96241e+07 2.90804e+07 2.85367e+07
          2.79916e+07 2.74421e+07 2.68873e+07 2.63289e+07 2.57692e+07 2.52121e+07 2.46629e+07 2.41291e+07 2.36211e+07 2.31515e+07 2.27329e+07 2.23711e+07
          2.20529e+07 2.20533e+07 2.23938e+07 2.27862e+07 2.32386e+07 2.37392e+07 2.42734e+07 2.4828e+07 2.53936e+07 2.59638e+07 2.6534e+07 2.71012e+07
          2.76633e+07 2.82195e+07 2.87716e+07 2.93233e+07 2.98751e+07 3.0427e+07 3.09791e+07 3.15313e+07 3.20836e+07 3.2636e+07 3.31886e+07 3.37412e+07
          3.42939e+07 3.48467e+07 3.53995e+07 3.59524e+07 3.65054e+07 3.70585e+07 3.76116e+07 3.81647e+07 3.87179e+07 3.92711e+07 3.98243e+07 4.03775e+07
          4.09308e+07 4.1484e+07 4.20373e+07 4.25905e+07 4.31438e+07 4.3697e+07 4.42502e+07 4.48033e+07 4.53565e+07 4.59099e+07 4.6465e+07 4.70313e+07
          4.7655e+07 4.84813e+07 4.95e+07 4.95e+07 4.84761e+07 4.76746e+07 4.7064e+07 4.65066e+07 4.59596e+07 4.54143e+07 4.48691e+07 4.4324e+07
          4.37788e+07 4.32336e+07 4.26884e+07 4.21431e+07 4.15979e+07 4.10526e+07 4.05074e+07 3.99621e+07 3.94169e+07 3.88717e+07 3.83265e+07 3.77814e+07
          3.72363e+07 3.66913e+07 3.61463e+07 3.56013e+07 3.50564e+07 3.45116e+07 3.39669e+07 3.34222e+07 3.28777e+07 3.23332e+07 3.17888e+07 3.12446e+07
          3.07004e+07 3.01564e+07 2.96125e+07 2.90687e+07 2.85251e+07 2.798e+07 2.74304e+07 2.68756e+07 2.63171e+07 2.57575e+07 2.52003e+07 2.46511e+07
          2.41173e+07 2.36092e+07 2.31395e+07 2.27209e+07 2.23591e+07 2.20402e+07 2.20405e+07 2.23818e+07 2.27742e+07 2.32266e+07 2.37273e+07 2.42615e+07
          2.48162e+07 2.53819e+07 2.59521e+07 2.65223e+07 2.70895e+07 2.76516e+07 2.82078e+07 2.876e+07 2.93116e+07 2.98635e+07 3.04154e+07 3.09675e+07
          3.15197e+07 3.2072e+07 3.26244e+07 3.31769e+07 3.37295e+07 3.42822e+07 3.4835e+07 3.53879e+07 3.59408e+07 3.64938e+07 3.70468e+07 3.75999e+07
          3.8153e+07 3.87062e+07 3.92594e+07 3.98126e+07 4.03659e+07 4.09191e+07 4.14724e+07 4.20256e+07 4.25789e+07 4.31321e+07 4.36853e+07 4.42385e+07
          4.47917e+07 4.53448e+07 4.58982e+07 4.64534e+07 4.70197e+07 4.7642e+07 4.84606e+07 4.95e+07 4.95e+07 4.84559e+07 4.76622e+07 4.70525e+07
          4.6495e+07 4.5948e+07 4.54026e+07 4.48575e+07 4.43123e+07 4.37671e+07 4.32219e+07 4.26767e+07 4.21315e+07 4.15862e+07 4.1041e+07 4.04957e+07
          3.99505e+07 3.94053e+07 3.88601e+07 3.83149e+07 3.77698e+07 3.72247e+07 3.66796e+07 3.61346e+07 3.55897e+07 3.50448e+07 3.45e+07 3.39553e+07
          3.34106e+07 3.2866e+07 3.23216e+07 3.17772e+07 3.1233e+07 3.06888e+07 3.01448e+07 2.96009e+07 2.90571e+07 2.85135e+07 2.79684e+07 2.74188e+07
          2.68639e+07 2.63054e+07 2.57457e+07 2.51885e+07 2.46393e+07 2.41054e+07 2.35972e+07 2.31275e+07 2.27088e+07 2.23471e+07 2.20271e+07 2.20274e+07
          2.23698e+07 2.27621e+07 2.32146e+07 2.37154e+07 2.42496e+07 2.48044e+07 2.53701e+07 2.59403e+07 2.65106e+07 2.70778e+07 2.76399e+07 2.81962e+07
          2.87483e+07 2.93e+07 2.98518e+07 3.04038e+07 3.09559e+07 3.15081e+07 3.20604e+07 3.26128e+07 3.31653e+07 3.37179e+07 3.42706e+07 3.48234e+07
          3.53762e+07 3.59292e+07 3.64821e+07 3.70352e+07 3.75883e+07 3.81414e+07 3.86946e+07 3.92478e+07 3.9801e+07 4.03542e+07 4.09075e+07 4.14607e+07
          4.2014e+07 4.25672e+07 4.31205e+07 4.36737e+07 4.42269e+07 4.478e+07 4.53332e+07 4.58866e+07 4.64418e+07 4.70082e+07 4.76295e+07 4.84403e+07
          4.95e+07 4.95e+07 4.84368e+07 4.76501e+07 4.7041e+07 4.64834e+07 4.59363e+07 4.5391e+07 4.48458e+07 4.43007e+07 4.37555e+07 4.32103e+07
          4.26651e+07 4.21198e+07 4.15746e+07 4.10293e+07 4.04841e+07 3.99388e+07 3.93936e+07 3.88484e+07 3.83032e+07 3.77581e+07 3.7213e+07 3.6668e+07
          3.6123e+07 3.5578e+07 3.50332e+07 3.44883e+07 3.39436e+07 3.3399e+07 3.28544e+07 3.23099e+07 3.17656e+07 3.12213e+07 3.06772e+07 3.01332e+07
          2.95892e+07 2.90455e+07 2.85019e+07 2.79567e+07 2.74071e+07 2.68522e+07 2.62937e+07 2.57339e+07 2.51767e+07 2.46274e+07 2.40934e+07 2.35852e+07
          2.31154e+07 2.26967e+07 2.23351e+07 2.20137e+07 2.20138e+07 2.23577e+07 2.275e+07 2.32026e+07 2.37034e+07 2.42377e+07 2.47925e+07 2.53583e+07
          2.59286e+07 2.64989e+07 2.70661e+07 2.76283e+07 2.81845e+07 2.87367e+07 2.92884e+07 2.98402e+07 3.03921e+07 3.09442e+07 3.14964e+07 3.20487e+07
          3.26011e+07 3.31537e+07 3.37063e+07 3.4259e+07 3.48117e+07 3.53646e+07 3.59175e+07 3.64705e+07 3.70235e+07 3.75766e+07 3.81298e+07 3.86829e+07
          3.92361e+07 3.97893e+07 4.03426e+07 4.08958e+07 4.14491e+07 4.20023e+07 4.25556e+07 4.31088e+07 4.3662e+07 4.42152e+07 4.47684e+07 4.53215e+07
          4.58749e+07 4.64302e+07 4.69967e+07 4.76174e+07 4.8421e+07 4.95e+07 4.94689e+07 4.84196e+07 4.76383e+07 4.70295e+07 4.64718e+07 4.59247e+07
          4.53793e+07 4.48341e+07 4.4289e+07 4.37438e+07 4.31986e+07 4.26534e+07 4.21082e+07 4.15629e+07 4.10177e+07 4.04724e+07 3.99272e+07 3.9382e+07
          3.88368e+07 3.82916e+07 3.77465e+07 3.72014e+07 3.66563e+07 3.61113e+07 3.55664e+07 3.50215e+07 3.44767e+07 3.3932e+07 3.33873e+07 3.28428e+07
          3.22983e+07 3.17539e+07 3.12097e+07 3.06655e+07 3.01215e+07 2.95776e+07 2.90339e+07 2.84902e+07 2.79451e+07 2.73954e+07 2.68405e+07 2.62819e+07
          2.57221e+07 2.51649e+07 2.46155e+07 2.40815e+07 2.35731e+07 2.31033e+07 2.26845e+07 2.2323e+07 2.2e+07 2.2e+07 2.23455e+07 2.27378e+07
          2.31904e+07 2.36914e+07 2.42258e+07 2.47806e+07 2.53465e+07 2.59168e+07 2.64872e+07 2.70544e+07 2.76166e+07 2.81729e+07 2.87251e+07 2.92768e+07
          2.98286e+07 3.03805e+07 3.09326e+07 3.14848e+07 3.20371e+07 3.25895e+07 3.3142e+07 3.36946e+07 3.42473e+07 3.48001e+07 3.5353e+07 3.59059e+07
          3.64589e+07 3.70119e+07 3.7565e+07 3.81181e+07 3.86713e+07 3.92245e+07 3.97777e+07 4.03309e+07 4.08842e+07 4.14374e+07 4.19907e+07 4.25439e+07
          4.30972e+07 4.36504e+07 4.42036e+07 4.47567e+07 4.53099e+07 4.58633e+07 4.64186e+07 4.69852e+07 4.76056e+07 4.84034e+07 4.94688e+07 4.94402e+07
          4.84042e+07 4.76267e+07 4.70179e+07 4.64602e+07 4.5913e+07 4.53676e+07 4.48225e+07 4.42773e+07 4.37322e+07 4.3187e+07 4.26417e+07 4.20965e+07
          4.15513e+07 4.1006e+07 4.04608e+07 3.99155e+07 3.93703e+07 3.88251e+07 3.828e+07 3.77348e+07 3.71897e+07 3.66447e+07 3.60997e+07 3.55547e+07
          3.50099e+07 3.44651e+07 3.39203e+07 3.33757e+07 3.28311e+07 3.22867e+07 3.17423e+07 3.11981e+07 3.06539e+07 3.01099e+07 2.9566e+07 2.90222e+07
          2.84786e+07 2.79334e+07 2.73837e+07 2.68288e+07 2.62702e+07 2.57103e+07 2.5153e+07 2.46036e+07 2.40695e+07 2.3561e+07 2.30911e+07 2.26723e+07
          2.23108e+07 2.2e+07 2.2e+07 2.23333e+07 2.27255e+07 2.31782e+07 2.36793e+07 2.42138e+07 2.47688e+07 2.53347e+07 2.5905e+07 2.64754e+07
          2.70427e+07 2.7605e+07 2.81613e+07 2.87134e+07 2.92651e+07 2.98169e+07 3.03689e+07 3.0921e+07 3.14732e+07 3.20255e+07 3.25779e+07 3.31304e+07
          3.3683e+07 3.42357e+07 3.47885e+07 3.53413e+07 3.58942e+07 3.64472e+07 3.70002e+07 3.75533e+07 3.81065e+07 3.86596e+07 3.92128e+07 3.9766e+07
          4.03193e+07 4.08725e+07 4.14258e+07 4.1979e+07 4.25323e+07 4.30855e+07 4.36387e+07 4.41919e+07 4.47451e+07 4.52982e+07 4.58516e+07 4.6407e+07
          4.69737e+07 4.7594e+07 4.83878e+07 4.94399e+07 4.94137e+07 4.83902e+07 4.76152e+07 4.70064e+07 4.64485e+07 4.59014e+07 4.5356e+07 4.48108e+07
          4.42657e+07 4.37205e+07 4.31753e+07 4.26301e+07 4.20849e+07 4.15396e+07 4.09944e+07 4.04491e+07 3.99039e+07 3.93587e+07 3.88135e+07 3.82683e+07
          3.77232e+07 3.71781e+07 3.6633e+07 3.6088e+07 3.55431e+07 3.49982e+07 3.44534e+07 3.39087e+07 3.33641e+07 3.28195e+07 3.2275e+07 3.17307e+07
          3.11864e+07 3.06423e+07 3.00983e+07 2.95544e+07 2.90106e+07 2.8467e+07 2.79218e+07 2.73721e+07 2.68171e+07 2.62584e+07 2.56985e+07 2.51412e+07
          2.45916e+07 2.40574e+07 2.35489e+07 2.30788e+07 2.266e+07 2.22986e+07 2.2e+07 2.2e+07 2.2321e+07 2.27132e+07 2.3166e+07 2.36672e+07
          2.42018e+07 2.47568e+07 2.53228e+07 2.58933e+07 2.64637e+07 2.7031e+07 2.75933e+07 2.81496e+07 2.87018e+07 2.92535e+07 2.98053e+07 3.03573e+07
          3.09093e+07 3.14615e+07 3.20138e+07 3.25662e+07 3.31187e+07 3.36714e+07 3.4224e+07 3.47768e+07 3.53297e+07 3.58826e+07 3.64356e+07 3.69886e+07
          3.75417e+07 3.80948e+07 3.8648e+07 3.92012e+07 3.97544e+07 4.03076e+07 4.08609e+07 4.14141e+07 4.19674e+07 4.25206e+07 4.30739e+07 4.36271e+07
          4.41802e+07 4.47334e+07 4.52866e+07 4.584e+07 4.63954e+07 4.69621e+07 4.75825e+07 4.83737e+07 4.94134e+07 4.93895e+07 4.83774e+07 4.76037e+07
          4.69948e+07 4.64369e+07 4.58897e+07 4.53443e+07 4.47992e+07 4.4254e+07 4.37089e+07 4.31637e+07 4.26184e+07 4.20732e+07 4.1528e+07 4.09827e+07
          4.04375e+07 3.98922e+07 3.9347e+07 3.88018e+07 3.82567e+07 3.77115e+07 3.71664e+07 3.66214e+07 3.60764e+07 3.55315e+07 3.49866e+07 3.44418e+07
          3.38971e+07 3.33524e+07 3.28079e+07 3.22634e+07 3.1719e+07 3.11748e+07 3.06306e+07 3.00866e+07 2.95427e+07 2.8999e+07 2.84553e+07 2.79101e+07
          2.73604e+07 2.68054e+07 2.62467e+07 2.56867e+07 2.51293e+07 2.45797e+07 2.40454e+07 2.35367e+07 2.30665e+07 2.26476e+07 2.22863e+07 2.2e+07
          2.2e+07 2.23087e+07 2.27007e+07 2.31537e+07 2.3655e+07 2.41898e+07 2.47449e+07 2.5311e+07 2.58815e+07 2.64519e+07 2.70193e+07 2.75816e+07
          2.8138e+07 2.86902e+07 2.92419e+07 2.97937e+07 3.03456e+07 3.08977e+07 3.14499e+07 3.20022e+07 3.25546e+07 3.31071e+07 3.36597e+07 3.42124e+07
          3.47652e+07 3.5318e+07 3.58709e+07 3.64239e+07 3.6977e+07 3.753e+07 3.80832e+07 3.86363e+07 3.91895e+07 3.97427e+07 4.0296e+07 4.08492e+07
          4.14025e+07 4.19557e+07 4.2509e+07 4.30622e+07 4.36154e+07 4.41686e+07 4.47217e+07 4.52749e+07 4.58283e+07 4.63837e+07 4.69506e+07 4.7571e+07
          4.83608e+07 4.93892e+07 4.93676e+07 4.83654e+07 4.75921e+07 4.69832e+07 4.64252e+07 4.5878e+07 4.53327e+07 4.47875e+07 4.42424e+07 4.36972e+07
          4.3152e+07 4.26068e+07 4.20616e+07 4.15163e+07 4.09711e+07 4.04258e+07 3.98806e+07 3.93354e+07 3.87902e+07 3.8245e+07 3.76999e+07 3.71548e+07
          3.66098e+07 3.60648e+07 3.55198e+07 3.4975e+07 3.44302e+07 3.38854e+07 3.33408e+07 3.27962e+07 3.22518e+07 3.17074e+07 3.11632e+07 3.0619e+07
          3.0075e+07 2.95311e+07 2.89873e+07 2.84437e+07 2.78985e+07 2.73487e+07 2.67937e+07 2.62349e+07 2.56749e+07 2.51174e+07 2.45677e+07 2.40332e+07
          2.35244e+07 2.30541e+07 2.26351e+07 2.22745e+07 2.2e+07 2.2e+07 2.22965e+07 2.26882e+07 2.31413e+07 2.36428e+07 2.41777e+07 2.4733e+07
          2.52991e+07 2.58697e+07 2.64402e+07 2.70076e+07 2.757e+07 2.81263e+07 2.86786e+07 2.92302e+07 2.9782e+07 3.0334e+07 3.08861e+07 3.14383e+07
          3.19906e+07 3.2543e+07 3.30955e+07 3.36481e+07 3.42008e+07 3.47535e+07 3.53064e+07 3.58593e+07 3.64123e+07 3.69653e+07 3.75184e+07 3.80715e+07
          3.86247e+07 3.91779e+07 3.97311e+07 4.02843e+07 4.08376e+07 4.13908e+07 4.19441e+07 4.24973e+07 4.30505e+07 4.36037e+07 4.41569e+07 4.47101e+07
          4.52632e+07 4.58167e+07 4.63721e+07 4.69389e+07 4.75594e+07 4.83489e+07 4.93673e+07
        </DataArray>
        <DataArray type="Float32" Name="pressure_oil" NumberOfComponents="1" format="ascii">
          4.95e+07 4.85381e+07 4.95e+07 4.85175e+07 4.77231e+07 4.77026e+07 4.70995e+07 4.70872e+07 4.65415e+07 4.65299e+07 4.59946e+07 4.59829e+07
          4.54492e+07 4.54376e+07 4.49041e+07 4.48924e+07 4.43589e+07 4.43473e+07 4.38138e+07 4.38021e+07 4.32686e+07 4.32569e+07 4.27233e+07 4.27117e+07
          4.21781e+07 4.21664e+07 4.16328e+07 4.16212e+07 4.10876e+07 4.10759e+07 4.05423e+07 4.05307e+07 3.99971e+07 3.99854e+07 3.94519e+07 3.94402e+07
          3.89067e+07 3.8895e+07 3.83615e+07 3.83498e+07 3.78163e+07 3.78047e+07 3.72712e+07 3.72596e+07 3.67262e+07 3.67145e+07 3.61812e+07 3.61695e+07
          3.56362e+07 3.56246e+07 3.50914e+07 3.50797e+07 3.45465e+07 3.45349e+07 3.40018e+07 3.39902e+07 3.34572e+07 3.34455e+07 3.29126e+07 3.2901e+07
          3.23681e+07 3.23565e+07 3.18237e+07 3.18121e+07 3.12795e+07 3.12679e+07 3.07353e+07 3.07237e+07 3.01913e+07 3.01797e+07 2.96474e+07 2.96358e+07
          2.91036e+07 2.9092e+07 2.856e+07 2.85484e+07 2.80149e+07 2.80033e+07 2.74654e+07 2.74538e+07 2.69107e+07 2.6899e+07 2.63523e+07 2.63406e+07
          2.57927e+07 2.5781e+07 2.52356e+07 2.52239e+07 2.46865e+07 2.46747e+07 2.41528e+07 2.4141e+07 2.36447e+07 2.36329e+07 2.31752e+07 2.31634e+07
          2.27566e+07 2.27448e+07 2.23948e+07 2.2383e+07 2.20773e+07 2.20653e+07 2.20777e+07 2.20657e+07 2.24175e+07 2.24057e+07 2.28099e+07 2.27981e+07
          2.32623e+07 2.32505e+07 2.37629e+07 2.37511e+07 2.4297e+07 2.42852e+07 2.48516e+07 2.48398e+07 2.54172e+07 2.54054e+07 2.59873e+07 2.59756e+07
          2.65575e+07 2.65458e+07 2.71246e+07 2.71129e+07 2.76866e+07 2.76749e+07 2.82427e+07 2.82311e+07 2.87948e+07 2.87832e+07 2.93465e+07 2.93349e+07
          2.98984e+07 2.98867e+07 3.04503e+07 3.04387e+07 3.10024e+07 3.09908e+07 3.15546e+07 3.1543e+07 3.21069e+07 3.20953e+07 3.26593e+07 3.26477e+07
          3.32118e+07 3.32002e+07 3.37645e+07 3.37528e+07 3.43172e+07 3.43055e+07 3.48699e+07 3.48583e+07 3.54228e+07 3.54112e+07 3.59757e+07 3.59641e+07
          3.65287e+07 3.65171e+07 3.70818e+07 3.70701e+07 3.76348e+07 3.76232e+07 3.8188e+07 3.81763e+07 3.87412e+07 3.87295e+07 3.92944e+07 3.92827e+07
          3.98476e+07 3.98359e+07 4.04008e+07 4.03892e+07 4.09541e+07 4.09424e+07 4.15073e+07 4.14957e+07 4.20606e+07 4.2049e+07 4.26139e+07 4.26022e+07
          4.31671e+07 4.31554e+07 4.37203e+07 4.37087e+07 4.42735e+07 4.42618e+07 4.48267e+07 4.4815e+07 4.53798e+07 4.53682e+07 4.59332e+07 4.59215e+07
          4.64883e+07 4.64767e+07 4.70553e+07 4.7043e+07 4.7691e+07 4.76705e+07 4.85225e+07 4.8502e+07 4.95e+07 4.95e+07 4.95e+07 4.84968e+07
          4.76874e+07 4.70756e+07 4.65182e+07 4.59713e+07 4.54259e+07 4.48808e+07 4.43356e+07 4.37904e+07 4.32452e+07 4.27e+07 4.21548e+07 4.16095e+07
          4.10643e+07 4.0519e+07 3.99738e+07 3.94286e+07 3.88834e+07 3.83382e+07 3.7793e+07 3.72479e+07 3.67029e+07 3.61579e+07 3.5613e+07 3.50681e+07
          3.45233e+07 3.39785e+07 3.34339e+07 3.28893e+07 3.23448e+07 3.18005e+07 3.12562e+07 3.07121e+07 3.0168e+07 2.96241e+07 2.90804e+07 2.85367e+07
          2.79916e+07 2.74421e+07 2.68873e+07 2.63289e+07 2.57692e+07 2.52121e+07 2.46629e+07 2.41291e+07 2.36211e+07 2.31515e+07 2.27329e+07 2.23711e+07
          2.20529e+07 2.20533e+07 2.23938e+07 2.27862e+07 2.32386e+07 2.37392e+07 2.42734e+07 2.4828e+07 2.53936e+07 2.59638e+07 2.6534e+07 2.71012e+07
          2.76633e+07 2.82195e+07 2.87716e+07 2.93233e+07 2.98751e+07 3.0427e+07 3.09791e+07 3.15313e+07 3.20836e+07 3.2636e+07 3.31886e+07 3.37412e+07
          3.42939e+07 3.48467e+07 3.53995e+07 3.59524e+07 3.65054e+07 3.70585e+07 3.76116e+07 3.81647e+07 3.87179e+07 3.92711e+07 3.98243e+07 4.03775e+07
          4.09308e+07 4.1484e+07 4.20373e+07 4.25905e+07 4.31438e+07 4.3697e+07 4.42502e+07 4.48033e+07 4.53565e+07 4.59099e+07 4.6465e+07 4.70313e+07
          4.7655e+07 4.84813e+07 4.95e+07 4.95e+07 4.84761e+07 4.76746e+07 4.7064e+07 4.65066e+07 4.59596e+07 4.54143e+07 4.48691e+07 4.4324e+07
          4.37788e+07 4.32336e+07 4.26884e+07 4.21431e+07 4.15979e+07 4.10526e+07 4.05074e+07 3.99621e+07 3.94169e+07 3.88717e+07 3.83265e+07 3.77814e+07
          3.72363e+07 3.66913e+07 3.61463e+07 3.56013e+07 3.50564e+07 3.45116e+07 3.39669e+07 3.34222e+07 3.28777e+07 3.23332e+07 3.17888e+07 3.12446e+07
          3.07004e+07 3.01564e+07 2.96125e+07 2.90687e+07 2.85251e+07 2.798e+07 2.74304e+07 2.68756e+07 2.63171e+07 2.57575e+07 2.52003e+07 2.46511e+07
          2.41173e+07 2.36092e+07 2.31395e+07 2.27209e+07 2.23591e+07 2.20402e+07 2.20405e+07 2.23818e+07 2.27742e+07 2.32266e+07 2.37273e+07 2.42615e+07
          2.48162e+07 2.53819e+07 2.59521e+07 2.65223e+07 2.70895e+07 2.76516e+07 2.82078e+07 2.876e+07 2.93116e+07 2.98635e+07 3.04154e+07 3.09675e+07
          3.15197e+07 3.2072e+07 3.26244e+07 3.31769e+07 3.37295e+07 3.42822e+07 3.4835e+07 3.53879e+07 3.59408e+07 3.64938e+07 3.70468e+07 3.75999e+07
          3.8153e+07 3.87062e+07 3.92594e+07 3.98126e+07 4.03659e+07 4.09191e+07 4.14724e+07 4.20256e+07 4.25789e+07 4.31321e+07 4.36853e+07 4.42385e+07
          4.47917e+07 4.53448e+07 4.58982e+07 4.64534e+07 4.70197e+07 4.7642e+07 4.84606e+07 4.95e+07 4.95e+07 4.84559e+07 4.76622e+07 4.70525e+07
          4.6495e+07 4.5948e+07 4.54026e+07 4.48575e+07 4.43123e+07 4.37671e+07 4.32219e+07 4.26767e+07 4.21315e+07 4.15862e+07 4.1041e+07 4.04957e+07
          3.99505e+07 3.94053e+07 3.88601e+07 3.83149e+07 3.77698e+07 3.72247e+07 3.66796e+07 3.61346e+07 3.55897e+07 3.50448e+07 3.45e+07 3.39553e+07
          3.34106e+07 3.2866e+07 3.23216e+07 3.17772e+07 3.1233e+07 3.06888e+07 3.01448e+07 2.96009e+07 2.90571e+07 2.85135e+07 2.79684e+07 2.74188e+07
          2.68639e+07 2.63054e+07 2.57457e+07 2.51885e+07 2.46393e+07 2.41054e+07 2.35972e+07 2.31275e+07 2.27088e+07 2.23471e+07 2.20271e+07 2.20274e+07
          2.23698e+07 2.27621e+07 2.32146e+07 2.37154e+07 2.42496e+07 2.48044e+07 2.53701e+07 2.59403e+07 2.65106e+07 2.70778e+07 2.76399e+07 2.81962e+07
          2.87483e+07 2.93e+07 2.98518e+07 3.04038e+07 3.09559e+07 3.15081e+07 3.20604e+07 3.26128e+07 3.31653e+07 3.37179e+07 3.42706e+07 3.48234e+07
          3.53762e+07 3.59292e+07 3.64821e+07 3.70352e+07 3.75883e+07 3.81414e+07 3.86946e+07 3.92478e+07 3.9801e+07 4.03542e+07 4.09075e+07 4.14607e+07
          4.2014e+07 4.25672e+07 4.31205e+07 4.36737e+07 4.42269e+07 4.478e+07 4.53332e+07 4.58866e+07 4.64418e+07 4.70082e+07 4.76295e+07 4.84403e+07
          4.95e+07 4.95e+07 4.84368e+07 4.76501e+07 4.7041e+07 4.64834e+07 4.59363e+07 4.5391e+07 4.48458e+07 4.43007e+07 4.37555e+07 4.32103e+07
          4.26651e+07 4.21198e+07 4.15746e+07 4.10293e+07 4.04841e+07 3.99388e+07 3.93936e+07 3.88484e+07 3.83032e+07 3.77581e+07 3.7213e+07 3.6668e+07
          3.6123e+07 3.5578e+07 3.50332e+07 3.44883e+07 3.39436e+07 3.3399e+07 3.28544e+07 3.23099e+07 3.17656e+07 3.12213e+07 3.06772e+07 3.01332e+07
          2.95892e+07 2.90455e+07 2.85019e+07 2.79567e+07 2.74071e+07 2.68522e+07 2.62937e+07 2.57339e+07 2.51767e+07 2.46274e+07 2.40934e+07 2.35852e+07
          2.31154e+07 2.26967e+07 2.23351e+07 2.20137e+07 2.20138e+07 2.23577e+07 2.275e+07 2.32026e+07 2.37034e+07 2.42377e+07 2.47925e+07 2.53583e+07
          2.59286e+07 2.64989e+07 2.70661e+07 2.76283e+07 2.81845e+07 2.87367e+07 2.92884e+07 2.98402e+07 3.03921e+07 3.09442e+07 3.14964e+07 3.20487e+07
          3.26011e+07 3.31537e+07 3.37063e+07 3.4259e+07 3.48117e+07 3.53646e+07 3.59175e+07 3.64705e+07 3.70235e+07 3.75766e+07 3.81298e+07 3.86829e+07
          3.92361e+07 3.97893e+07 4.03426e+07 4.08958e+07 4.14491e+07 4.20023e+07 4.25556e+07 4.31088e+07 4.3662e+07 4.42152e+07 4.47684e+07 4.53215e+07
          4.58749e+07 4.64302e+07 4.69967e+07 4.76174e+07 4.8421e+07 4.95e+07 4.94689e+07 4.84196e+07 4.76383e+07 4.70295e+07 4.64718e+07 4.59247e+07
          4.53793e+07 4.48341e+07 4.4289e+07 4.37438e+07 4.31986e+07 4.26534e+07 4.21082e+07 4.15629e+07 4.10177e+07 4.04724e+07 3.99272e+07 3.9382e+07
          3.88368e+07 3.82916e+07 3.77465e+07 3.72014e+07 3.66563e+07 3.61113e+07 3.55664e+07 3.50215e+07 3.44767e+07 3.3932e+07 3.33873e+07 3.28428e+07
          3.22983e+07 3.17539e+07 3.12097e+07 3.06655e+07 3.01215e+07 2.95776e+07 2.90339e+07 2.84902e+07 2.79451e+07 2.73954e+07 2.68405e+07 2.62819e+07
          2.57221e+07 2.51649e+07 2.46155e+07 2.40815e+07 2.35731e+07 2.31033e+07 2.26845e+07 2.2323e+07 2.2e+07 2.2e+07 2.23455e+07 2.27378e+07
          2.31904e+07 2.36914e+07 2.42258e+07 2.47806e+07 2.53465e+07 2.59168e+07 2.64872e+07 2.70544e+07 2.76166e+07 2.81729e+07 2.87251e+07 2.92768e+07
          2.98286e+07 3.03805e+07 3.09326e+07 3.14848e+07 3.20371e+07 3.25895e+07 3.3142e+07 3.36946e+07 3.42473e+07 3.48001e+07 3.5353e+07 3.59059e+07
          3.64589e+07 3.70119e+07 3.7565e+07 3.81181e+07 3.86713e+07 3.92245e+07 3.97777e+07 4.03309e+07 4.08842e+07 4.14374e+07 4.19907e+07 4.25439e+07
          4.30972e+07 4.36504e+07 4.42036e+07 4.47567e+07 4.53099e+07 4.58633e+07 4.64186e+07 4.69852e+07 4.76056e+07 4.84034e+07 4.94688e+07 4.94402e+07
          4.84042e+07 4.76267e+07 4.70179e+07 4.64602e+07 4.5913e+07 4.53676e+07 4.48225e+07 4.42773e+07 4.37322e+07 4.3187e+07 4.26417e+07 4.20965e+07
          4.15513e+07 4.1006e+07 4.04608e+07 3.99155e+07 3.93703e+07 3.88251e+07 3.828e+07 3.77348e+07 3.71897e+07 3.66447e+07 3.60997e+07 3.55547e+07
          3.50099e+07 3.44651e+07 3.39203e+07 3.33757e+07 3.28311e+07 3.22867e+07 3.17423e+07 3.11981e+07 3.06539e+07 3.01099e+07 2.9566e+07 2.90222e+07
          2.84786e+07 2.79334e+07 2.73837e+07 2.68288e+07 2.62702e+07 2.57103e+07 2.5153e+07 2.46036e+07 2.40695e+07 2.3561e+07 2.30911e+07 2.26723e+07
          2.23108e+07 2.2e+07 2.2e+07 2.23333e+07 2.27255e+07 2.31782e+07 2.36793e+07 2.42138e+07 2.47688e+07 2.53347e+07 2.5905e+07 2.64754e+07
          2.70427e+07 2.7605e+07 2.81613e+07 2.87134e+07 2.92651e+07 2.98169e+07 3.03689e+07 3.0921e+07 3.14732e+07 3.20255e+07 3.25779e+07 3.31304e+07
          3.3683e+07 3.42357e+07 3.47885e+07 3.53413e+07 3.58942e+07 3.64472e+07 3.70002e+07 3.75533e+07 3.81065e+07 3.86596e+07 3.92128e+07 3.9766e+07
          4.03193e+07 4.08725e+07 4.14258e+07 4.1979e+07 4.25323e+07 4.30855e+07 4.36387e+07 4.41919e+07 4.47451e+07 4.52982e+07 4.58516e+07 4.6407e+07
          4.69737e+07 4.7594e+07 4.83878e+07 4.94399e+07 4.94137e+07 4.83902e+07 4.76152e+07 4.70064e+07 4.64485e+07 4.59014e+07 4.5356e+07 4.48108e+07
          4.42657e+07 4.37205e+07 4.31753e+07 4.26301e+07 4.20849e+07 4.15396e+07 4.09944e+07 4.04491e+07 3.99039e+07 3.93587e+07 3.88135e+07 3.82683e+07
          3.77232e+07 3.71781e+07 3.6633e+07 3.6088e+07 3.55431e+07 3.49982e+07 3.44534e+07 3.39087e+07 3.33641e+07 3.28195e+07 3.2275e+07 3.17307e+07
          3.11864e+07 3.06423e+07 3.00983e+07 2.95544e+07 2.90106e+07 2.8467e+07 2.79218e+07 2.73721e+07 2.68171e+07 2.62584e+07 2.56985e+07 2.51412e+07
          2.45916e+07 2.40574e+07 2.35489e+07 2.30788e+07 2.266e+07 2.22986e+07 2.2e+07 2.2e+07 2.2321e+07 2.27132e+07 2.3166e+07 2.36672e+07
          2.42018e+07 2.47568e+07 2.53228e+07 2.58933e+07 2.64637e+07 2.7031e+07 2.75933e+07 2.81496e+07 2.87018e+07 2.92535e+07 2.98053e+07 3.03573e+07
          3.09093e+07 3.14615e+07 3.20138e+07 3.25662e+07 3.31187e+07 3.36714e+07 3.4224e+07 3.47768e+07 3.53297e+07 3.58826e+07 3.64356e+07 3.69886e+07
          3.75417e+07 3.80948e+07 3.8648e+07 3.92012e+07 3.97544e+07 4.03076e+07 4.08609e+07 4.14141e+07 4.19674e+07 4.25206e+07 4.30739e+07 4.36271e+07
          4.41802e+07 4.47334e+07 4.52866e+07 4.584e+07 4.63954e+07 4.69621e+07 4.75825e+07 4.83737e+07 4.94134e+07 4.93895e+07 4.83774e+07 4.76037e+07
          4.69948e+07 4.64369e+07 4.58897e+07 4.53443e+07 4.47992e+07 4.4254e+07 4.37089e+07 4.31637e+07 4.26184e+07 4.20732e+07 4.1528e+07 4.09827e+07
          4.04375e+07 3.98922e+07 3.9347e+07 3.88018e+07 3.82567e+07 3.77115e+07 3.71664e+07 3.66214e+07 3.60764e+07 3.55315e+07 3.49866e+07 3.44418e+07
          3.38971e+07 3.33524e+07 3.28079e+07 3.22634e+07 3.1719e+07 3.11748e+07 3.06306e+07 3.00866e+07 2.95427e+07 2.8999e+07 2.84553e+07 2.79101e+07
          2.73604e+07 2.68054e+07 2.62467e+07 2.56867e+07 2.51293e+07 2.45797e+07 2.40454e+07 2.35367e+07 2.30665e+07 2.26476e+07 2.22863e+07 2.2e+07
          2.2e+07 2.23087e+07 2.27007e+07 2.31537e+07 2.3655e+07 2.41898e+07 2.47449e+07 2.5311e+07 2.58815e+07 2.64519e+07 2.70193e+07 2.75816e+07
          2.8138e+07 2.86902e+07 2.92419e+07 2.97937e+07 3.03456e+07 3.08977e+07 3.14499e+07 3.20022e+07 3.25546e+07 3.31071e+07 3.36597e+07 3.42124e+07
          3.47652e+07 3.5318e+07 3.58709e+07 3.64239e+07 3.6977e+07 3.753e+07 3.80832e+07 3.86363e+07 3.91895e+07 3.97427e+07 4.0296e+07 4.08492e+07
          4.14025e+07 4.19557e+07 4.2509e+07 4.30622e+07 4.36154e+07 4.41686e+07 4.47217e+07 4.52749e+07 4.58283e+07 4.63837e+07 4.69506e+07 4.7571e+07
          4.83608e+07 4.93892e+07 4.93676e+07 4.83654e+07 4.75921e+07 4.69832e+07 4.64252e+07 4.5878e+07 4.53327e+07 4.47875e+07 4.42424e+07 4.36972e+07
          4.3152e+07 4.26068e+07 4.20616e+07 4.15163e+07 4.09711e+07 4.04258e+07 3.98806e+07 3.93354e+07 3.87902e+07 3.8245e+07 3.76999e+07 3.71548e+07
          3.66098e+07 3.60648e+07 3.55198e+07 3.4975e+07 3.44302e+07 3.38854e+07 3.33408e+07 3.27962e+07 3.22518e+07 3.17074e+07 3.11632e+07 3.0619e+07
          3.0075e+07 2.95311e+07 2.89873e+07 2.84437e+07 2.78985e+07 2.73487e+07 2.67937e+07 2.62349e+07 2.56749e+07 2.51174e+07 2.45677e+07 2.40332e+07
          2.35244e+07 2.30541e+07 2.26351e+07 2.22745e+07 2.2e+07 2.2e+07 2.22965e+07 2.26882e+07 2.31413e+07 2.36428e+07 2.41777e+07 2.4733e+07
          2.52991e+07 2.58697e+07 2.64402e+07 2.70076e+07 2.757e+07 2.81263e+07 2.86786e+07 2.92302e+07 2.9782e+07 3.0334e+07 3.08861e+07 3.14383e+07
          3.19906e+07 3.2543e+07 3.30955e+07 3.36481e+07 3.42008e+07 3.47535e+07 3.53064e+07 3.58593e+07 3.64123e+07 3.69653e+07 3.75184e+07 3.80715e+07
          3.86247e+07 3.91779e+07 3.97311e+07 4.02843e+07 4.08376e+07 4.13908e+07 4.19441e+07 4.24973e+07 4.30505e+07 4.36037e+07 4.41569e+07 4.47101e+07
          4.52632e+07 4.58167e+07 4.63721e+07 4.69389e+07 4.75594e+07 4.83489e+07 4.93673e+07
        </DataArray>
        <DataArray type="Float32" Name="pressure_gas" NumberOfComponents="1" format="ascii">
          4.95e+07 4.85381e+07 4.95e+07 4.85175e+07 4.77231e+07 4.77026e+07 4.70995e+07 4.70872e+07 4.65415e+07 4.65299e+07 4.59946e+07 4.59829e+07
          4.54492e+07 4.54376e+07 4.49041e+07 4.48924e+07 4.43589e+07 4.43473e+07 4.38138e+07 4.38021e+07 4.32686e+07 4.32569e+07 4.27233e+07 4.27117e+07
          4.21781e+07 4.21664e+07 4.16328e+07 4.16212e+07 4.10876e+07 4.10759e+07 4.05423e+07 4.05307e+07 3.99971e+07 3.99854e+07 3.94519e+07 3.94402e+07
          3.89067e+07 3.8895e+07 3.83615e+07 3.83498e+07 3.78163e+07 3.78047e+07 3.72712e+07 3.72596e+07 3.67262e+07 3.67145e+07 3.61812e+07 3.61695e+07
          3.56362e+07 3.56246e+07 3.50914e+07 3.50797e+07 3.45465e+07 3.45349e+07 3.40018e+07 3.39902e+07 3.34572e+07 3.34455e+07 3.29126e+07 3.2901e+07
          3.23681e+07 3.23565e+07 3.18237e+07 3.18121e+07 3.12795e+07 3.12679e+07 3.07353e+07 3.07237e+07 3.01913e+07 3.01797e+07 2.96474e+07 2.96358e+07
          2.91036e+07 2.9092e+07 2.856e+07 2.85484e+07 2.80149e+07 2.80033e+07 2.74654e+07 2.74538e+07 2.69107e+07 2.6899e+07 2.63523e+07 2.63406e+07
          2.57927e+07 2.5781e+07 2.52356e+07 2.52239e+07 2.46865e+07 2.46747e+07 2.41528e+07 2.4141e+07 2.36447e+07 2.36329e+07 2.31752e+07 2.31634e+07