<?xml version="1.0"?>
<VTKFile type="UnstructuredGrid" version="0.1" byte_order="LittleEndian">
  <UnstructuredGrid>
    <Piece NumberOfCells="1000" NumberOfPoints="1111">
      <PointData Scalars="pressure_o">
        <DataArray type="Float32" Name="pressure_o" NumberOfComponents="1" format="ascii">
          3e+07 2.75859e+07 3e+07 2.75707e+07 2.54622e+07 2.54496e+07 2.37334e+07 2.37203e+07 2.24328e+07 2.24198e+07 2.15241e+07 2.15111e+07
          2.0931e+07 2.0918e+07 2.05638e+07 2.05508e+07 2.03461e+07 2.03332e+07 2.02214e+07 2.02084e+07 2.01542e+07 2.01412e+07 2.01281e+07 2.01151e+07
          2.01246e+07 2.01117e+07 2.01244e+07 2.01114e+07 2.01243e+07 2.01114e+07 2.01243e+07 2.01114e+07 2.01243e+07 2.01114e+07 2.01243e+07 2.01114e+07
          2.01243e+07 2.01114e+07 2.01243e+07 2.01114e+07 2.01243e+07 2.01114e+07 2.01243e+07 2.01114e+07 2.01243e+07 2.01114e+07 2.01243e+07 2.01114e+07
          2.01243e+07 2.01114e+07 2.01243e+07 2.01114e+07 2.01243e+07 2.01114e+07 2.01243e+07 2.01114e+07 2.01243e+07 2.01114e+07 2.01243e+07 2.01114e+07
          2.01243e+07 2.01114e+07 2.01243e+07 2.01114e+07 2.01243e+07 2.01114e+07 2.01243e+07 2.01114e+07 2.01243e+07 2.01114e+07 2.01243e+07 2.01114e+07
          2.01243e+07 2.01114e+07 2.01243e+07 2.01114e+07 2.01243e+07 2.01114e+07 2.01243e+07 2.01114e+07 2.01243e+07 2.01114e+07 2.01243e+07 2.01114e+07
          2.01243e+07 2.01114e+07 2.01243e+07 2.01114e+07 2.01243e+07 2.01114e+07 2.01242e+07 2.01113e+07 2.01238e+07 2.01108e+07 2.01194e+07 2.01065e+07
          2.00997e+07 2.00864e+07 1.97932e+07 1.97835e+07 1.34725e+07 1.34671e+07 1.97932e+07 1.97835e+07 2.00997e+07 2.00864e+07 2.01194e+07 2.01065e+07
          2.01238e+07 2.01108e+07 2.01242e+07 2.01113e+07 2.01243e+07 2.01114e+07 2.01243e+07 2.01114e+07 2.01243e+07 2.01114e+07 2.01243e+07 2.01114e+07
          2.01243e+07 2.01114e+07 2.01243e+07 2.01114e+07 2.01243e+07 2.01114e+07 2.01243e+07 2.01114e+07 2.01243e+07 2.01114e+07 2.01243e+07 2.01114e+07
          2.01243e+07 2.01114e+07 2.01243e+07 2.01114e+07 2.01243e+07 2.01114e+07 2.01243e+07 2.01114e+07 2.01243e+07 2.01114e+07 2.01243e+07 2.01114e+07
          2.01243e+07 2.01114e+07 2.01243e+07 2.01114e+07 2.01243e+07 2.01114e+07 2.01243e+07 2.01114e+07 2.01243e+07 2.01114e+07 2.01243e+07 2.01114e+07
          2.01243e+07 2.01114e+07 2.01243e+07 2.01114e+07 2.01243e+07 2.01114e+07 2.01243e+07 2.01114e+07 2.01243e+07 2.01114e+07 2.01243e+07 2.01114e+07
          2.01243e+07 2.01114e+07 2.01243e+07 2.01114e+07 2.01243e+07 2.01114e+07 2.01244e+07 2.01114e+07 2.01246e+07 2.01117e+07 2.01281e+07 2.01151e+07
          2.01542e+07 2.01412e+07 2.02214e+07 2.02084e+07 2.03461e+07 2.03332e+07 2.05638e+07 2.05508e+07 2.0931e+07 2.0918e+07 2.15241e+07 2.15111e+07
          2.24328e+07 2.24198e+07 2.37334e+07 2.37203e+07 2.54622e+07 2.54496e+07 2.75859e+07 2.75707e+07 3e+07 3e+07 3e+07 2.75554e+07
          2.5437e+07 2.37073e+07 2.24068e+07 2.14981e+07 2.0905e+07 2.05379e+07 2.03202e+07 2.01955e+07 2.01282e+07 2.01021e+07 2.00987e+07 2.00984e+07
          2.00984e+07 2.00984e+07 2.00984e+07 2.00984e+07 2.00984e+07 2.00984e+07 2.00984e+07 2.00984e+07 2.00984e+07 2.00984e+07 2.00984e+07 2.00984e+07
          2.00984e+07 2.00984e+07 2.00984e+07 2.00984e+07 2.00984e+07 2.00984e+07 2.00984e+07 2.00984e+07 2.00984e+07 2.00984e+07 2.00984e+07 2.00984e+07
          2.00984e+07 2.00984e+07 2.00984e+07 2.00984e+07 2.00984e+07 2.00984e+07 2.00984e+07 2.00983e+07 2.00978e+07 2.00937e+07 2.00726e+07 1.97786e+07
          1.3454e+07 1.97786e+07 2.00726e+07 2.00937e+07 2.00978e+07 2.00983e+07 2.00984e+07 2.00984e+07 2.00984e+07 2.00984e+07 2.00984e+07 2.00984e+07
          2.00984e+07 2.00984e+07 2.00984e+07 2.00984e+07 2.00984e+07 2.00984e+07 2.00984e+07 2.00984e+07 2.00984e+07 2.00984e+07 2.00984e+07 2.00984e+07
          2.00984e+07 2.00984e+07 2.00984e+07 2.00984e+07 2.00984e+07 2.00984e+07 2.00984e+07 2.00984e+07 2.00984e+07 2.00984e+07 2.00984e+07 2.00984e+07
          2.00984e+07 2.00984e+07 2.00987e+07 2.01021e+07 2.01282e+07 2.01955e+07 2.03202e+07 2.05379e+07 2.0905e+07 2.14981e+07 2.24068e+07 2.37073e+07
          2.5437e+07 2.75554e+07 3e+07 3e+07 2.75402e+07 2.54245e+07 2.36942e+07 2.23939e+07 2.14851e+07 2.0892e+07 2.05249e+07 2.03072e+07
          2.01825e+07 2.01152e+07 2.00891e+07 2.00857e+07 2.00855e+07 2.00854e+07 2.00854e+07 2.00854e+07 2.00854e+07 2.00854e+07 2.00854e+07 2.00854e+07
          2.00854e+07 2.00854e+07 2.00854e+07 2.00854e+07 2.00854e+07 2.00854e+07 2.00854e+07 2.00854e+07 2.00854e+07 2.00854e+07 2.00854e+07 2.00854e+07
          2.00854e+07 2.00854e+07 2.00854e+07 2.00854e+07 2.00854e+07 2.00854e+07 2.00854e+07 2.00854e+07 2.00854e+07 2.00854e+07 2.00854e+07 2.00854e+07
          2.00853e+07 2.00848e+07 2.0081e+07 2.00587e+07 1.97772e+07 1.34334e+07 1.97772e+07 2.00587e+07 2.0081e+07 2.00848e+07 2.00853e+07 2.00854e+07
          2.00854e+07 2.00854e+07 2.00854e+07 2.00854e+07 2.00854e+07 2.00854e+07 2.00854e+07 2.00854e+07 2.00854e+07 2.00854e+07 2.00854e+07 2.00854e+07
          2.00854e+07 2.00854e+07 2.00854e+07 2.00854e+07 2.00854e+07 2.00854e+07 2.00854e+07 2.00854e+07 2.00854e+07 2.00854e+07 2.00854e+07 2.00854e+07
          2.00854e+07 2.00854e+07 2.00854e+07 2.00854e+07 2.00854e+07 2.00854e+07 2.00855e+07 2.00857e+07 2.00891e+07 2.01152e+07 2.01825e+07 2.03072e+07
          2.05249e+07 2.0892e+07 2.14851e+07 2.23939e+07 2.36942e+07 2.54245e+07 2.75402e+07 3e+07 3e+07 2.75248e+07 2.5412e+07 2.36812e+07
          2.23809e+07 2.14722e+07 2.08791e+07 2.05119e+07 2.02942e+07 2.01695e+07 2.01021e+07 2.0076e+07 2.00727e+07 2.00725e+07 2.00725e+07 2.00725e+07
          2.00725e+07 2.00725e+07 2.00725e+07 2.00725e+07 2.00725e+07 2.00725e+07 2.00725e+07 2.00725e+07 2.00725e+07 2.00725e+07 2.00725e+07 2.00725e+07
          2.00725e+07 2.00725e+07 2.00725e+07 2.00725e+07 2.00725e+07 2.00725e+07 2.00725e+07 2.00725e+07 2.00725e+07 2.00725e+07 2.00725e+07 2.00725e+07
          2.00725e+07 2.00725e+07 2.00725e+07 2.00725e+07 2.00725e+07 2.00724e+07 2.00718e+07 2.00683e+07 2.00446e+07 1.97786e+07 1.34059e+07 1.97786e+07
          2.00446e+07 2.00683e+07 2.00718e+07 2.00724e+07 2.00725e+07 2.00725e+07 2.00725e+07 2.00725e+07 2.00725e+07 2.00725e+07 2.00725e+07 2.00725e+07
          2.00725e+07 2.00725e+07 2.00725e+07 2.00725e+07 2.00725e+07 2.00725e+07 2.00725e+07 2.00725e+07 2.00725e+07 2.00725e+07 2.00725e+07 2.00725e+07
          2.00725e+07 2.00725e+07 2.00725e+07 2.00725e+07 2.00725e+07 2.00725e+07 2.00725e+07 2.00725e+07 2.00725e+07 2.00725e+07 2.00725e+07 2.00725e+07
          2.00727e+07 2.0076e+07 2.01021e+07 2.01695e+07 2.02942e+07 2.05119e+07 2.08791e+07 2.14722e+07 2.23809e+07 2.36812e+07 2.5412e+07 2.75248e+07
          3e+07 2.99353e+07 2.75206e+07 2.53975e+07 2.36684e+07 2.23679e+07 2.14592e+07 2.08661e+07 2.0499e+07 2.02813e+07 2.01566e+07 2.00891e+07
          2.00629e+07 2.00598e+07 2.00595e+07 2.00595e+07 2.00595e+07 2.00595e+07 2.00595e+07 2.00595e+07 2.00595e+07 2.00595e+07 2.00595e+07 2.00595e+07
          2.00595e+07 2.00595e+07 2.00595e+07 2.00595e+07 2.00595e+07 2.00595e+07 2.00595e+07 2.00595e+07 2.00595e+07 2.00595e+07 2.00595e+07 2.00595e+07
          2.00595e+07 2.00595e+07 2.00595e+07 2.00595e+07 2.00595e+07 2.00595e+07 2.00595e+07 2.00595e+07 2.00595e+07 2.00595e+07 2.00594e+07 2.00588e+07
          2.00556e+07 2.00307e+07 1.97817e+07 1.33721e+07 1.97817e+07 2.00307e+07 2.00556e+07 2.00588e+07 2.00594e+07 2.00595e+07 2.00595e+07 2.00595e+07
          2.00595e+07 2.00595e+07 2.00595e+07 2.00595e+07 2.00595e+07 2.00595e+07 2.00595e+07 2.00595e+07 2.00595e+07 2.00595e+07 2.00595e+07 2.00595e+07
          2.00595e+07 2.00595e+07 2.00595e+07 2.00595e+07 2.00595e+07 2.00595e+07 2.00595e+07 2.00595e+07 2.00595e+07 2.00595e+07 2.00595e+07 2.00595e+07
          2.00595e+07 2.00595e+07 2.00595e+07 2.00595e+07 2.00595e+07 2.00598e+07 2.00629e+07 2.00891e+07 2.01566e+07 2.02813e+07 2.0499e+07 2.08661e+07
          2.14592e+07 2.23679e+07 2.36684e+07 2.53975e+07 2.75206e+07 2.99353e+07 2.98888e+07 2.75131e+07 2.53837e+07 2.36556e+07 2.23549e+07 2.14462e+07
          2.08531e+07 2.0486e+07 2.02683e+07 2.01436e+07 2.0076e+07 2.00498e+07 2.00468e+07 2.00466e+07 2.00465e+07 2.00465e+07 2.00465e+07 2.00465e+07
          2.00465e+07 2.00465e+07 2.00465e+07 2.00465e+07 2.00465e+07 2.00465e+07 2.00465e+07 2.00465e+07 2.00465e+07 2.00465e+07 2.00465e+07 2.00465e+07
          2.00465e+07 2.00465e+07 2.00465e+07 2.00465e+07 2.00465e+07 2.00465e+07 2.00465e+07 2.00465e+07 2.00465e+07 2.00465e+07 2.00465e+07 2.00465e+07
          2.00465e+07 2.00465e+07 2.00465e+07 2.00465e+07 2.00458e+07 2.00429e+07 2.0017e+07 1.9785e+07 1.33333e+07 1.9785e+07 2.0017e+07 2.00429e+07
          2.00458e+07 2.00465e+07 2.00465e+07 2.00465e+07 2.00465e+07 2.00465e+07 2.00465e+07 2.00465e+07 2.00465e+07 2.00465e+07 2.00465e+07 2.00465e+07
          2.00465e+07 2.00465e+07 2.00465e+07 2.00465e+07 2.00465e+07 2.00465e+07 2.00465e+07 2.00465e+07 2.00465e+07 2.00465e+07 2.00465e+07 2.00465e+07
          2.00465e+07 2.00465e+07 2.00465e+07 2.00465e+07 2.00465e+07 2.00465e+07 2.00465e+07 2.00465e+07 2.00465e+07 2.00466e+07 2.00468e+07 2.00498e+07
          2.0076e+07 2.01436e+07 2.02683e+07 2.0486e+07 2.08531e+07 2.14462e+07 2.23549e+07 2.36556e+07 2.53837e+07 2.75131e+07 2.98888e+07 2.98503e+07
          2.75042e+07 2.53701e+07 2.36427e+07 2.23419e+07 2.14333e+07 2.08402e+07 2.0473e+07 2.02553e+07 2.01307e+07 2.00628e+07 2.00367e+07 2.00338e+07
          2.00336e+07 2.00336e+07 2.00336e+07 2.00336e+07 2.00336e+07 2.00336e+07 2.00336e+07 2.00336e+07 2.00336e+07 2.00336e+07 2.00336e+07 2.00336e+07
          2.00336e+07 2.00336e+07 2.00336e+07 2.00336e+07 2.00336e+07 2.00336e+07 2.00336e+07 2.00336e+07 2.00336e+07 2.00336e+07 2.00336e+07 2.00336e+07
          2.00336e+07 2.00336e+07 2.00336e+07 2.00336e+07 2.00336e+07 2.00336e+07 2.00336e+07 2.00335e+07 2.00335e+07 2.00329e+07 2.00299e+07 2.0005e+07
          1.97799e+07 1.33333e+07 1.97799e+07 2.0005e+07 2.00299e+07 2.00329e+07 2.00335e+07 2.00335e+07 2.00336e+07 2.00336e+07 2.00336e+07 2.00336e+07
          2.00336e+07 2.00336e+07 2.00336e+07 2.00336e+07 2.00336e+07 2.00336e+07 2.00336e+07 2.00336e+07 2.00336e+07 2.00336e+07 2.00336e+07 2.00336e+07
          2.00336e+07 2.00336e+07 2.00336e+07 2.00336e+07 2.00336e+07 2.00336e+07 2.00336e+07 2.00336e+07 2.00336e+07 2.00336e+07 2.00336e+07 2.00336e+07
          2.00336e+07 2.00336e+07 2.00336e+07 2.00338e+07 2.00367e+07 2.00628e+07 2.01307e+07 2.02553e+07 2.0473e+07 2.08402e+07 2.14333e+07 2.23419e+07
          2.36427e+07 2.53701e+07 2.75042e+07 2.98503e+07 2.98191e+07 2.74941e+07 2.53567e+07 2.36298e+07 2.23289e+07 2.14203e+07 2.08272e+07 2.046e+07
          2.02424e+07 2.01177e+07 2.00497e+07 2.00235e+07 2.00209e+07 2.00206e+07 2.00206e+07 2.00206e+07 2.00206e+07 2.00206e+07 2.00206e+07 2.00206e+07
          2.00206e+07 2.00206e+07 2.00206e+07 2.00206e+07 2.00206e+07 2.00206e+07 2.00206e+07 2.00206e+07 2.00206e+07 2.00206e+07 2.00206e+07 2.00206e+07
          2.00206e+07 2.00206e+07 2.00206e+07 2.00206e+07 2.00206e+07 2.00206e+07 2.00206e+07 2.00206e+07 2.00206e+07 2.00206e+07 2.00206e+07 2.00206e+07
          2.00206e+07 2.00205e+07 2.002e+07 2.00168e+07 1.99938e+07 1.97727e+07 1.33333e+07 1.97727e+07 1.99938e+07 2.00168e+07 2.002e+07 2.00205e+07
          2.00206e+07 2.00206e+07 2.00206e+07 2.00206e+07 2.00206e+07 2.00206e+07 2.00206e+07 2.00206e+07 2.00206e+07 2.00206e+07 2.00206e+07 2.00206e+07
          2.00206e+07 2.00206e+07 2.00206e+07 2.00206e+07 2.00206e+07 2.00206e+07 2.00206e+07 2.00206e+07 2.00206e+07 2.00206e+07 2.00206e+07 2.00206e+07
          2.00206e+07 2.00206e+07 2.00206e+07 2.00206e+07 2.00206e+07 2.00206e+07 2.00206e+07 2.00206e+07 2.00209e+07 2.00235e+07 2.00497e+07 2.01177e+07
          2.02424e+07 2.046e+07 2.08272e+07 2.14203e+07 2.23289e+07 2.36298e+07 2.53567e+07 2.74941e+07 2.98191e+07 2.97952e+07 2.74829e+07 2.53434e+07
          2.36169e+07 2.23159e+07 2.14073e+07 2.08142e+07 2.04471e+07 2.02294e+07 2.01048e+07 2.00365e+07 2.00103e+07 2.00079e+07 2.00076e+07 2.00076e+07
          2.00076e+07 2.00076e+07 2.00076e+07 2.00076e+07 2.00076e+07 2.00076e+07 2.00076e+07 2.00076e+07 2.00076e+07 2.00076e+07 2.00076e+07 2.00076e+07
          2.00076e+07 2.00076e+07 2.00076e+07 2.00076e+07 2.00076e+07 2.00076e+07 2.00076e+07 2.00076e+07 2.00076e+07 2.00076e+07 2.00076e+07 2.00076e+07
          2.00076e+07 2.00076e+07 2.00076e+07 2.00076e+07 2.00076e+07 2.00076e+07 2.00075e+07 2.0007e+07 2.00039e+07 1.9982e+07 1.97638e+07 1.33333e+07
          1.97638e+07 1.9982e+07 2.00039e+07 2.0007e+07 2.00075e+07 2.00076e+07 2.00076e+07 2.00076e+07 2.00076e+07 2.00076e+07 2.00076e+07 2.00076e+07
          2.00076e+07 2.00076e+07 2.00076e+07 2.00076e+07 2.00076e+07 2.00076e+07 2.00076e+07 2.00076e+07 2.00076e+07 2.00076e+07 2.00076e+07 2.00076e+07
          2.00076e+07 2.00076e+07 2.00076e+07 2.00076e+07 2.00076e+07 2.00076e+07 2.00076e+07 2.00076e+07 2.00076e+07 2.00076e+07 2.00076e+07 2.00076e+07
          2.00076e+07 2.00079e+07 2.00103e+07 2.00365e+07 2.01048e+07 2.02294e+07 2.04471e+07 2.08142e+07 2.14073e+07 2.23159e+07 2.36169e+07 2.53434e+07
          2.74829e+07 2.97952e+07 2.97786e+07 2.74705e+07 2.53303e+07 2.36039e+07 2.23029e+07 2.13943e+07 2.08012e+07 2.04341e+07 2.02164e+07 2.00919e+07
          2.00233e+07 1.99971e+07 1.99949e+07 1.99947e+07 1.99946e+07 1.99946e+07 1.99946e+07 1.99946e+07 1.99946e+07 1.99946e+07 1.99946e+07 1.99946e+07
          1.99946e+07 1.99946e+07 1.99946e+07 1.99946e+07 1.99946e+07 1.99946e+07 1.99946e+07 1.99946e+07 1.99946e+07 1.99946e+07 1.99946e+07 1.99946e+07
          1.99946e+07 1.99946e+07 1.99946e+07 1.99946e+07 1.99946e+07 1.99946e+07 1.99946e+07 1.99946e+07 1.99946e+07 1.99946e+07 1.99946e+07 1.99946e+07
          1.99941e+07 1.99911e+07 1.99697e+07 1.97534e+07 1.33333e+07 1.97534e+07 1.99697e+07 1.99911e+07 1.99941e+07 1.99946e+07 1.99946e+07 1.99946e+07
          1.99946e+07 1.99946e+07 1.99946e+07 1.99946e+07 1.99946e+07 1.99946e+07 1.99946e+07 1.99946e+07 1.99946e+07 1.99946e+07 1.99946e+07 1.99946e+07
          1.99946e+07 1.99946e+07 1.99946e+07 1.99946e+07 1.99946e+07 1.99946e+07 1.99946e+07 1.99946e+07 1.99946e+07 1.99946e+07 1.99946e+07 1.99946e+07
          1.99946e+07 1.99946e+07 1.99946e+07 1.99946e+07 1.99946e+07 1.99947e+07 1.99949e+07 1.99971e+07 2.00233e+07 2.00919e+07 2.02164e+07 2.04341e+07
          2.08012e+07 2.13943e+07 2.23029e+07 2.36039e+07 2.53303e+07 2.74705e+07 2.97786e+07
        </DataArray>
        <DataArray type="Float32" Name="pressure_w" NumberOfComponents="1" format="ascii">
          3e+07 2.75859e+07 3e+07 2.75707e+07 2.54622e+07 2.54496e+07 2.37334e+07 2.37203e+07 2.24328e+07 2.24198e+07 2.15241e+07 2.15111e+07
          2.0931e+07 2.0918e+07 2.05638e+07 2.05508e+07 2.03461e+07 2.03332e+07 2.02214e+07 2.02084e+07 2.01542e+07 2.01412e+07 2.01281e+07 2.01151e+07
          2.01246e+07 2.01117e+07 2.01244e+07 2.01114e+07 2.01243e+07 2.01114e+07 2.01243e+07 2.01114e+07 2.01243e+07 2.01114e+07 2.01243e+07 2.01114e+07
          2.01243e+07 2.01114e+07 2.01243e+07 2.01114e+07 2.01243e+07 2.01114e+07 2.01243e+07 2.01114e+07 2.01243e+07 2.01114e+07 2.01243e+07 2.01114e+07
          2.01243e+07 2.01114e+07 2.01243e+07 2.01114e+07 2.01243e+07 2.01114e+07 2.01243e+07 2.01114e+07 2.01243e+07 2.01114e+07 2.01243e+07 2.01114e+07
          2.01243e+07 2.01114e+07 2.01243e+07 2.01114e+07 2.01243e+07 2.01114e+07 2.01243e+07 2.01114e+07 2.01243e+07 2.01114e+07 2.01243e+07 2.01114e+07
          2.01243e+07 2.01114e+07 2.01243e+07 2.01114e+07 2.01243e+07 2.01114e+07 2.01243e+07 2.01114e+07 2.01243e+07 2.01114e+07 2.01243e+07 2.01114e+07
          2.01243e+07 2.01114e+07 2.01243e+07 2.01114e+07 2.01243e+07 2.01114e+07 2.01242e+07 2.01113e+07 2.01238e+07 2.01108e+07 2.01194e+07 2.01065e+07
          2.00997e+07 2.00864e+07 1.97932e+07 1.97835e+07 1.34725e+07 1.34671e+07 1.97932e+07 1.97835e+07 2.00997e+07 2.00864e+07 2.01194e+07 2.01065e+07
          2.01238e+07 2.01108e+07 2.01242e+07 2.01113e+07 2.01243e+07 2.01114e+07 2.01243e+07 2.01114e+07 2.01243e+07 2.01114e+07 2.01243e+07 2.01114e+07
          2.01243e+07 2.01114e+07 2.01243e+07 2.01114e+07 2.01243e+07 2.01114e+07 2.01243e+07 2.01114e+07 2.01243e+07 2.01114e+07 2.01243e+07 2.01114e+07
          2.01243e+07 2.01114e+07 2.01243e+07 2.01114e+07 2.01243e+07 2.01114e+07 2.01243e+07 2.01114e+07 2.01243e+07 2.01114e+07 2.01243e+07 2.01114e+07
          2.01243e+07 2.01114e+07 2.01243e+07 2.01114e+07 2.01243e+07 2.01114e+07 2.01243e+07 2.01114e+07 2.01243e+07 2.01114e+07 2.01243e+07 2.01114e+07
          2.01243e+07 2.01114e+07 2.01243e+07 2.01114e+07 2.01243e+07 2.01114e+07 2.01243e+07 2.01114e+07 2.01243e+07 2.01114e+07 2.01243e+07 2.01114e+07
          2.01243e+07 2.01114e+07 2.01243e+07 2.01114e+07 2.01243e+07 2.01114e+07 2.01244e+07 2.01114e+07 2.01246e+07 2.01117e+07 2.01281e+07 2.01151e+07
          2.01542e+07 2.01412e+07 2.02214e+07 2.02084e+07 2.03461e+07 2.03332e+07 2.05638e+07 2.05508e+07 2.0931e+07 2.0918e+07 2.15241e+07 2.15111e+07
          2.24328e+07 2.24198e+07 2.37334e+07 2.37203e+07 2.54622e+07 2.54496e+07 2.75859e+07 2.75707e+07 3e+07 3e+07 3e+07 2.75554e+07
          2.5437e+07 2.37073e+07 2.24068e+07 2.14981e+07 2.0905e+07 2.05379e+07 2.03202e+07 2.01955e+07 2.01282e+07 2.01021e+07 2.00987e+07 2.00984e+07
          2.00984e+07 2.00984e+07 2.00984e+07 2.00984e+07 2.00984e+07 2.00984e+07 2.00984e+07 2.00984e+07 2.00984e+07 2.00984e+07 2.00984e+07 2.00984e+07
          2.00984e+07 2.00984e+07 2.00984e+07 2.00984e+07 2.00984e+07 2.00984e+07 2.00984e+07 2.00984e+07 2.00984e+07 2.00984e+07 2.00984e+07 2.00984e+07
          2.00984e+07 2.00984e+07 2.00984e+07 2.00984e+07 2.00984e+07 2.00984e+07 2.00984e+07 2.00983e+07 2.00978e+07 2.00937e+07 2.00726e+07 1.97786e+07
          1.3454e+07 1.97786e+07 2.00726e+07 2.00937e+07 2.00978e+07 2.00983e+07 2.00984e+07 2.00984e+07 2.00984e+07 2.00984e+07 2.00984e+07 2.00984e+07
          2.00984e+07 2.00984e+07 2.00984e+07 2.00984e+07 2.00984e+07 2.00984e+07 2.00984e+07 2.00984e+07 2.00984e+07 2.00984e+07 2.00984e+07 2.00984e+07
          2.00984e+07 2.00984e+07 2.00984e+07 2.00984e+07 2.00984e+07 2.00984e+07 2.00984e+07 2.00984e+07 2.00984e+07 2.00984e+07 2.00984e+07 2.00984e+07
          2.00984e+07 2.00984e+07 2.00987e+07 2.01021e+07 2.01282e+07 2.01955e+07 2.03202e+07 2.05379e+07 2.0905e+07 2.14981e+07 2.24068e+07 2.37073e+07
          2.5437e+07 2.75554e+07 3e+07 3e+07 2.75402e+07 2.54245e+07 2.36942e+07 2.23939e+07 2.14851e+07 2.0892e+07 2.05249e+07 2.03072e+07
          2.01825e+07 2.01152e+07 2.00891e+07 2.00857e+07 2.00855e+07 2.00854e+07 2.00854e+07 2.00854e+07 2.00854e+07 2.00854e+07 2.00854e+07 2.00854e+07
          2.00854e+07 2.00854e+07 2.00854e+07 2.00854e+07 2.00854e+07 2.00854e+07 2.00854e+07 2.00854e+07 2.00854e+07 2.00854e+07 2.00854e+07 2.00854e+07
          2.00854e+07 2.00854e+07 2.00854e+07 2.00854e+07 2.00854e+07 2.00854e+07 2.00854e+07 2.00854e+07 2.00854e+07 2.00854e+07 2.00854e+07 2.00854e+07
          2.00853e+07 2.00848e+07 2.0081e+07 2.00587e+07 1.97772e+07 1.34334e+07 1.97772e+07 2.00587e+07 2.0081e+07 2.00848e+07 2.00853e+07 2.00854e+07
          2.00854e+07 2.00854e+07 2.00854e+07 2.00854e+07 2.00854e+07 2.00854e+07 2.00854e+07 2.00854e+07 2.00854e+07 2.00854e+07 2.00854e+07 2.00854e+07
          2.00854e+07 2.00854e+07 2.00854e+07 2.00854e+07 2.00854e+07 2.00854e+07 2.00854e+07 2.00854e+07 2.00854e+07 2.00854e+07 2.00854e+07 2.00854e+07
          2.00854e+07 2.00854e+07 2.00854e+07 2.00854e+07 2.00854e+07 2.00854e+07 2.00855e+07 2.00857e+07 2.00891e+07 2.01152e+07 2.01825e+07 2.03072e+07
          2.05249e+07 2.0892e+07 2.14851e+07 2.23939e+07 2.36942e+07 2.54245e+07 2.75402e+07 3e+07 3e+07 2.75248e+07 2.5412e+07 2.36812e+07
          2.23809e+07 2.14722e+07 2.08791e+07 2.05119e+07 2.02942e+07 2.01695e+07 2.01021e+07 2.0076e+07 2.00727e+07 2.00725e+07 2.00725e+07 2.00725e+07
          2.00725e+07 2.00725e+07 2.00725e+07 2.00725e+07 2.00725e+07 2.00725e+07 2.00725e+07 2.00725e+07 2.00725e+07 2.00725e+07 2.00725e+07 2.00725e+07
          2.00725e+07 2.00725e+07 2.00725e+07 2.00725e+07 2.00725e+07 2.00725e+07 2.00725e+07 2.00725e+07 2.00725e+07 2.00725e+07 2.00725e+07 2.00725e+07
          2.00725e+07 2.00725e+07 2.00725e+07 2.00725e+07 2.00725e+07 2.00724e+07 2.00718e+07 2.00683e+07 2.00446e+07 1.97786e+07 1.34059e+07 1.97786e+07
          2.00446e+07 2.00683e+07 2.00718e+07 2.00724e+07 2.00725e+07 2.00725e+07 2.00725e+07 2.00725e+07 2.00725e+07 2.00725e+07 2.00725e+07 2.00725e+07
          2.00725e+07 2.00725e+07 2.00725e+07 2.00725e+07 2.00725e+07 2.00725e+07 2.00725e+07 2.00725e+07 2.00725e+07 2.00725e+07 2.00725e+07 2.00725e+07
          2.00725e+07 2.00725e+07 2.00725e+07 2.00725e+07 2.00725e+07 2.00725e+07 2.00725e+07 2.00725e+07 2.00725e+07 2.00725e+07 2.00725e+07 2.00725e+07
          2.00727e+07 2.0076e+07 2.01021e+07 2.01695e+07 2.02942e+07 2.05119e+07 2.08791e+07 2.14722e+07 2.23809e+07 2.36812e+07 2.5412e+07 2.75248e+07
          3e+07 2.99353e+07 2.75206e+07 2.53975e+07 2.36684e+07 2.23679e+07 2.14592e+07 2.08661e+07 2.0499e+07 2.02813e+07 2.01566e+07 2.00891e+07
          2.00629e+07 2.00598e+07 2.00595e+07 2.00595e+07 2.00595e+07 2.00595e+07 2.00595e+07 2.00595e+07 2.00595e+07 2.00595e+07 2.00595e+07 2.00595e+07
          2.00595e+07 2.00595e+07 2.00595e+07 2.00595e+07 2.00595e+07 2.00595e+07 2.00595e+07 2.00595e+07 2.00595e+07 2.00595e+07 2.00595e+07 2.00595e+07
          2.00595e+07 2.00595e+07 2.00595e+07 2.00595e+07 2.00595e+07 2.00595e+07 2.00595e+07 2.00595e+07 2.00595e+07 2.00595e+07 2.00594e+07 2.00588e+07
          2.00556e+07 2.00307e+07 1.97817e+07 1.33721e+07 1.97817e+07 2.00307e+07 2.00556e+07 2.00588e+07 2.00594e+07 2.00595e+07 2.00595e+07 2.00595e+07
          2.00595e+07 2.00595e+07 2.00595e+07 2.00595e+07 2.00595e+07 2.00595e+07 2.00595e+07 2.00595e+07 2.00595e+07 2.00595e+07 2.00595e+07 2.00595e+07
          2.00595e+07 2.00595e+07 2.00595e+07 2.00595e+07 2.00595e+07 2.00595e+07 2.00595e+07 2.00595e+07 2.00595e+07 2.00595e+07 2.00595e+07 2.00595e+07
          2.00595e+07 2.00595e+07 2.00595e+07 2.00595e+07 2.00595e+07 2.00598e+07 2.00629e+07 2.00891e+07 2.01566e+07 2.02813e+07 2.0499e+07 2.08661e+07
          2.14592e+07 2.23679e+07 2.36684e+07 2.53975e+07 2.75206e+07 2.99353e+07 2.98888e+07 2.75131e+07 2.53837e+07 2.36556e+07 2.23549e+07 2.14462e+07
          2.08531e+07 2.0486e+07 2.02683e+07 2.01436e+07 2.0076e+07 2.00498e+07 2.00468e+07 2.00466e+07 2.00465e+07 2.00465e+07 2.00465e+07 2.00465e+07
          2.00465e+07 2.00465e+07 2.00465e+07 2.00465e+07 2.00465e+07 2.00465e+07 2.00465e+07 2.00465e+07 2.00465e+07 2.00465e+07 2.00465e+07 2.00465e+07
          2.00465e+07 2.00465e+07 2.00465e+07 2.00465e+07 2.00465e+07 2.00465e+07 2.00465e+07 2.00465e+07 2.00465e+07 2.00465e+07 2.00465e+07 2.00465e+07
          2.00465e+07 2.00465e+07 2.00465e+07 2.00465e+07 2.00458e+07 2.00429e+07 2.0017e+07 1.9785e+07 1.33333e+07 1.9785e+07 2.0017e+07 2.00429e+07
          2.00458e+07 2.00465e+07 2.00465e+07 2.00465e+07 2.00465e+07 2.00465e+07 2.00465e+07 2.00465e+07 2.00465e+07 2.00465e+07 2.00465e+07 2.00465e+07
          2.00465e+07 2.00465e+07 2.00465e+07 2.00465e+07 2.00465e+07 2.00465e+07 2.00465e+07 2.00465e+07 2.00465e+07 2.00465e+07 2.00465e+07 2.00465e+07
          2.00465e+07 2.00465e+07 2.00465e+07 2.00465e+07 2.00465e+07 2.00465e+07 2.00465e+07 2.00465e+07 2.00465e+07 2.00466e+07 2.00468e+07 2.00498e+07
          2.0076e+07 2.01436e+07 2.02683e+07 2.0486e+07 2.08531e+07 2.14462e+07 2.23549e+07 2.36556e+07 2.53837e+07 2.75131e+07 2.98888e+07 2.98503e+07
          2.75042e+07 2.53701e+07 2.36427e+07 2.23419e+07 2.14333e+07 2.08402e+07 2.0473e+07 2.02553e+07 2.01307e+07 2.00628e+07 2.00367e+07 2.00338e+07
          2.00336e+07 2.00336e+07 2.00336e+07 2.00336e+07 2.00336e+07 2.00336e+07 2.00336e+07 2.00336e+07 2.00336e+07 2.00336e+07 2.00336e+07 2.00336e+07
          2.00336e+07 2.00336e+07 2.00336e+07 2.00336e+07 2.00336e+07 2.00336e+07 2.00336e+07 2.00336e+07 2.00336e+07 2.00336e+07 2.00336e+07 2.00336e+07
          2.00336e+07 2.00336e+07 2.00336e+07 2.00336e+07 2.00336e+07 2.00336e+07 2.00336e+07 2.00335e+07 2.00335e+07 2.00329e+07 2.00299e+07 2.0005e+07
          1.97799e+07 1.33333e+07 1.97799e+07 2.0005e+07 2.00299e+07 2.00329e+07 2.00335e+07 2.00335e+07 2.00336e+07 2.00336e+07 2.00336e+07 2.00336e+07
          2.00336e+07 2.00336e+07 2.00336e+07 2.00336e+07 2.00336e+07 2.00336e+07 2.00336e+07 2.00336e+07 2.00336e+07 2.00336e+07 2.00336e+07 2.00336e+07
          2.00336e+07 2.00336e+07 2.00336e+07 2.00336e+07 2.00336e+07 2.00336e+07 2.00336e+07 2.00336e+07 2.00336e+07 2.00336e+07 2.00336e+07 2.00336e+07
          2.00336e+07 2.00336e+07 2.00336e+07 2.00338e+07 2.00367e+07 2.00628e+07 2.01307e+07 2.02553e+07 2.0473e+07 2.08402e+07 2.14333e+07 2.23419e+07
          2.36427e+07 2.53701e+07 2.75042e+07 2.98503e+07 2.98191e+07 2.74941e+07 2.53567e+07 2.36298e+07 2.23289e+07 2.14203e+07 2.08272e+07 2.046e+07
          2.02424e+07 2.01177e+07 2.00497e+07 2.00235e+07 2.00209e+07 2.00206e+07 2.00206e+07 2.00206e+07 2.00206e+07 2.00206e+07 2.00206e+07 2.00206e+07
          2.00206e+07 2.00206e+07 2.00206e+07 2.00206e+07 2.00206e+07 2.00206e+07 2.00206e+07 2.00206e+07 2.00206e+07 2.00206e+07 2.00206e+07 2.00206e+07
          2.00206e+07 2.00206e+07 2.00206e+07 2.00206e+07 2.00206e+07 2.00206e+07 2.00206e+07 2.00206e+07 2.00206e+07 2.00206e+07 2.00206e+07 2.00206e+07
          2.00206e+07 2.00205e+07 2.002e+07 2.00168e+07 1.99938e+07 1.97727e+07 1.33333e+07 1.97727e+07 1.99938e+07 2.00168e+07 2.002e+07 2.00205e+07
          2.00206e+07 2.00206e+07 2.00206e+07 2.00206e+07 2.00206e+07 2.00206e+07 2.00206e+07 2.00206e+07 2.00206e+07 2.00206e+07 2.00206e+07 2.00206e+07
          2.00206e+07 2.00206e+07 2.00206e+07 2.00206e+07 2.00206e+07 2.00206e+07 2.00206e+07 2.00206e+07 2.00206e+07 2.00206e+07 2.00206e+07 2.00206e+07
          2.00206e+07 2.00206e+07 2.00206e+07 2.00206e+07 2.00206e+07 2.00206e+07 2.00206e+07 2.00206e+07 2.00209e+07 2.00235e+07 2.00497e+07 2.01177e+07
          2.02424e+07 2.046e+07 2.08272e+07 2.14203e+07 2.23289e+07 2.36298e+07 2.53567e+07 2.74941e+07 2.98191e+07 2.97952e+07 2.74829e+07 2.53434e+07
          2.36169e+07 2.23159e+07 2.14073e+07 2.08142e+07 2.04471e+07 2.02294e+07 2.01048e+07 2.00365e+07 2.00103e+07 2.00079e+07 2.00076e+07 2.00076e+07
          2.00076e+07 2.00076e+07 2.00076e+07 2.00076e+07 2.00076e+07 2.00076e+07 2.00076e+07 2.00076e+07 2.00076e+07 2.00076e+07 2.00076e+07 2.00076e+07
          2.00076e+07 2.00076e+07 2.00076e+07 2.00076e+07 2.00076e+07 2.00076e+07 2.00076e+07 2.00076e+07 2.00076e+07 2.00076e+07 2.00076e+07 2.00076e+07
          2.00076e+07 2.00076e+07 2.00076e+07 2.00076e+07 2.00076e+07 2.00076e+07 2.00075e+07 2.0007e+07 2.00039e+07 1.9982e+07 1.97638e+07 1.33333e+07
          1.97638e+07 1.9982e+07 2.00039e+07 2.0007e+07 2.00075e+07 2.00076e+07 2.00076e+07 2.00076e+07 2.00076e+07 2.00076e+07 2.00076e+07 2.00076e+07
          2.00076e+07 2.00076e+07 2.00076e+07 2.00076e+07 2.00076e+07 2.00076e+07 2.00076e+07 2.00076e+07 2.00076e+07 2.00076e+07 2.00076e+07 2.00076e+07
          2.00076e+07 2.00076e+07 2.00076e+07 2.00076e+07 2.00076e+07 2.00076e+07 2.00076e+07 2.00076e+07 2.00076e+07 2.00076e+07 2.00076e+07 2.00076e+07
          2.00076e+07 2.00079e+07 2.00103e+07 2.00365e+07 2.01048e+07 2.02294e+07 2.04471e+07 2.08142e+07 2.14073e+07 2.23159e+07 2.36169e+07 2.53434e+07
          2.74829e+07 2.97952e+07 2.97786e+07 2.74705e+07 2.53303e+07 2.36039e+07 2.23029e+07 2.13943e+07 2.08012e+07 2.04341e+07 2.02164e+07 2.00919e+07
          2.00233e+07 1.99971e+07 1.99949e+07 1.99947e+07 1.99946e+07 1.99946e+07 1.99946e+07 1.99946e+07 1.99946e+07 1.99946e+07 1.99946e+07 1.99946e+07
          1.99946e+07 1.99946e+07 1.99946e+07 1.99946e+07 1.99946e+07 1.99946e+07 1.99946e+07 1.99946e+07 1.99946e+07 1.99946e+07 1.99946e+07 1.99946e+07
          1.99946e+07 1.99946e+07 1.99946e+07 1.99946e+07 1.99946e+07 1.99946e+07 1.99946e+07 1.99946e+07 1.99946e+07 1.99946e+07 1.99946e+07 1.99946e+07
          1.99941e+07 1.99911e+07 1.99697e+07 1.97534e+07 1.33333e+07 1.97534e+07 1.99697e+07 1.99911e+07 1.99941e+07 1.99946e+07 1.99946e+07 1.99946e+07
          1.99946e+07 1.99946e+07 1.99946e+07 1.99946e+07 1.99946e+07 1.99946e+07 1.99946e+07 1.99946e+07 1.99946e+07 1.99946e+07 1.99946e+07 1.99946e+07
          1.99946e+07 1.99946e+07 1.99946e+07 1.99946e+07 1.99946e+07 1.99946e+07 1.99946e+07 1.99946e+07 1.99946e+07 1.99946e+07 1.99946e+07 1.99946e+07
          1.99946e+07 1.99946e+07 1.99946e+07 1.99946e+07 1.99946e+07 1.99947e+07 1.99949e+07 1.99971e+07 2.00233e+07 2.00919e+07 2.02164e+07 2.04341e+07
          2.08012e+07 2.13943e+07 2.23029e+07 2.36039e+07 2.53303e+07 2.74705e+07 2.97786e+07
        </DataArray>
        <DataArray type="Float32" Name="pressure_g" NumberOfComponents="1" format="ascii">
          3e+07 2.75859e+07 3e+07 2.75707e+07 2.54622e+07 2.54496e+07 2.37334e+07 2.37203e+07 2.24328e+07 2.24198e+07 2.15241e+07 2.15111e+07
          2.0931e+07 2.0918e+07 2.05638e+07 2.05508e+07 2.03461e+07 2.03332e+07 2.02214e+07 2.02084e+07 2.01542e+07 2.01412e+07 2.01281e+07 2.01151e+07
          2.01246e+07 2.01117e+07 2.01244e+07 2.01114e+07 2.01243e+07 2.01114e+07 2.01243e+07 2.01114e+07 2.01243e+07 2.01114e+07 2.01243e+07 2.01114e+07
          2.01243e+07 2.01114e+07 2.01243e+07 2.01114e+07 2.01243e+07 2.01114e+07 2.01243e+07 2.01114e+07 2.01243e+07 2.01114e+07 2.01243e+07 2.01114e+07
          2.01243e+07 2.01114e+07 2.01243e+07 2.01114e+07 2.01243e+07 2.01114e+07 2.01243e+07 2.01114e+07 2.01243e+07 2.01114e+07 2.01243e+07 2.01114e+07
          2.01243e+07 2.01114e+07 2.01243e+07 2.01114e+07 2.01243e+07 2.01114e+07 2.01243e+07 2.01114e+07 2.01243e+07 2.01114e+07 2.01243e+07 2.01114e+07
          2.01243e+07 2.01114e+07 2.01243e+07 2.01114e+07 2.01243e+07 2.01114e+07 2.01243e+07 2.01114e+07 2.01243e+07 2.01114e+07 2.01243e+07 2.01114e+07