<?xml version="1.0"?>
<VTKFile type="UnstructuredGrid" version="0.1" byte_order="LittleEndian">
  <UnstructuredGrid>
    <Piece NumberOfCells="1000" NumberOfPoints="1111">
      <PointData Scalars="pressure_water">
        <DataArray type="Float32" Name="pressure_water" NumberOfComponents="1" format="ascii">
          4.95e+07 4.57075e+07 4.95e+07 4.56944e+07 4.30936e+07 4.30822e+07 4.07634e+07 4.07517e+07 3.88151e+07 3.88035e+07 3.72507e+07 3.7239e+07
          3.60414e+07 3.60298e+07 3.5137e+07 3.51254e+07 3.44797e+07 3.44681e+07 3.40139e+07 3.40022e+07 3.36909e+07 3.36793e+07 3.34714e+07 3.34597e+07
          3.33247e+07 3.3313e+07 3.32281e+07 3.32165e+07 3.31654e+07 3.31538e+07 3.31252e+07 3.31136e+07 3.30998e+07 3.30881e+07 3.30838e+07 3.30721e+07
          3.30738e+07 3.30622e+07 3.30676e+07 3.3056e+07 3.30639e+07 3.30522e+07 3.30616e+07 3.30499e+07 3.30602e+07 3.30485e+07 3.30593e+07 3.30477e+07
          3.30588e+07 3.30471e+07 3.30584e+07 3.30467e+07 3.3058e+07 3.30464e+07 3.30577e+07 3.3046e+07 3.30572e+07 3.30455e+07 3.30564e+07 3.30448e+07
          3.30552e+07 3.30435e+07 3.30532e+07 3.30415e+07 3.305e+07 3.30383e+07 3.30448e+07 3.30331e+07 3.30365e+07 3.30249e+07 3.30234e+07 3.30118e+07
          3.3003e+07 3.29914e+07 3.29715e+07 3.29598e+07 3.29234e+07 3.29117e+07 3.28512e+07 3.28395e+07 3.27445e+07 3.27328e+07 3.25899e+07 3.25783e+07
          3.23706e+07 3.23589e+07 3.20668e+07 3.20552e+07 3.16575e+07 3.16458e+07 3.11228e+07 3.11111e+07 3.04485e+07 3.04368e+07 2.96301e+07 2.96185e+07
          2.8683e+07 2.86712e+07 2.7603e+07 2.75925e+07 2.21993e+07 2.21899e+07 2.7603e+07 2.75925e+07 2.8683e+07 2.86712e+07 2.96301e+07 2.96185e+07
          3.04485e+07 3.04368e+07 3.11228e+07 3.11111e+07 3.16575e+07 3.16458e+07 3.20668e+07 3.20552e+07 3.23706e+07 3.23589e+07 3.25899e+07 3.25783e+07
          3.27445e+07 3.27328e+07 3.28512e+07 3.28395e+07 3.29234e+07 3.29117e+07 3.29715e+07 3.29598e+07 3.3003e+07 3.29914e+07 3.30234e+07 3.30118e+07
          3.30365e+07 3.30249e+07 3.30448e+07 3.30331e+07 3.305e+07 3.30383e+07 3.30532e+07 3.30415e+07 3.30552e+07 3.30435e+07 3.30564e+07 3.30448e+07
          3.30572e+07 3.30455e+07 3.30577e+07 3.3046e+07 3.3058e+07 3.30464e+07 3.30584e+07 3.30467e+07 3.30588e+07 3.30471e+07 3.30593e+07 3.30477e+07
          3.30602e+07 3.30485e+07 3.30616e+07 3.30499e+07 3.30639e+07 3.30522e+07 3.30676e+07 3.3056e+07 3.30738e+07 3.30622e+07 3.30838e+07 3.30721e+07
          3.30998e+07 3.30881e+07 3.31252e+07 3.31136e+07 3.31654e+07 3.31538e+07 3.32281e+07 3.32165e+07 3.33247e+07 3.3313e+07 3.34714e+07 3.34597e+07
          3.36909e+07 3.36793e+07 3.40139e+07 3.40022e+07 3.44797e+07 3.44681e+07 3.5137e+07 3.51254e+07 3.60414e+07 3.60298e+07 3.72507e+07 3.7239e+07
          3.88151e+07 3.88035e+07 4.07634e+07 4.07517e+07 4.30936e+07 4.30822e+07 4.57075e+07 4.56944e+07 4.95e+07 4.95e+07 4.95e+07 4.56826e+07
          4.30707e+07 4.074e+07 3.87919e+07 3.72274e+07 3.60182e+07 3.51137e+07 3.44564e+07 3.39906e+07 3.36676e+07 3.34481e+07 3.33014e+07 3.32048e+07
          3.31422e+07 3.3102e+07 3.30765e+07 3.30605e+07 3.30505e+07 3.30444e+07 3.30406e+07 3.30383e+07 3.30369e+07 3.3036e+07 3.30355e+07 3.30351e+07
          3.30348e+07 3.30344e+07 3.30339e+07 3.30331e+07 3.30319e+07 3.30299e+07 3.30267e+07 3.30215e+07 3.30132e+07 3.30002e+07 3.29797e+07 3.29482e+07
          3.29001e+07 3.28279e+07 3.27212e+07 3.25666e+07 3.23473e+07 3.20435e+07 3.16342e+07 3.10995e+07 3.04252e+07 2.96069e+07 2.86591e+07 2.75837e+07
          2.21717e+07 2.75837e+07 2.86591e+07 2.96069e+07 3.04252e+07 3.10995e+07 3.16342e+07 3.20435e+07 3.23473e+07 3.25666e+07 3.27212e+07 3.28279e+07
          3.29001e+07 3.29482e+07 3.29797e+07 3.30002e+07 3.30132e+07 3.30215e+07 3.30267e+07 3.30299e+07 3.30319e+07 3.30331e+07 3.30339e+07 3.30344e+07
          3.30348e+07 3.30351e+07 3.30355e+07 3.3036e+07 3.30369e+07 3.30383e+07 3.30406e+07 3.30444e+07 3.30505e+07 3.30605e+07 3.30765e+07 3.3102e+07
          3.31422e+07 3.32048e+07 3.33014e+07 3.34481e+07 3.36676e+07 3.39906e+07 3.44564e+07 3.51137e+07 3.60182e+07 3.72274e+07 3.87919e+07 4.074e+07
          4.30707e+07 4.56826e+07 4.95e+07 4.95e+07 4.56719e+07 4.3059e+07 4.07283e+07 3.87802e+07 3.72157e+07 3.60065e+07 3.51021e+07 3.44448e+07
          3.39789e+07 3.3656e+07 3.34365e+07 3.32897e+07 3.31932e+07 3.31305e+07 3.30903e+07 3.30648e+07 3.30488e+07 3.30389e+07 3.30327e+07 3.3029e+07
          3.30267e+07 3.30253e+07 3.30244e+07 3.30239e+07 3.30235e+07 3.30231e+07 3.30228e+07 3.30223e+07 3.30215e+07 3.30203e+07 3.30183e+07 3.3015e+07
          3.30099e+07 3.30016e+07 3.29885e+07 3.29681e+07 3.29366e+07 3.28885e+07 3.28162e+07 3.27096e+07 3.2555e+07 3.23357e+07 3.20319e+07 3.16226e+07
          3.10879e+07 3.04135e+07 2.95954e+07 2.86468e+07 2.75766e+07 2.21439e+07 2.75766e+07 2.86468e+07 2.95954e+07 3.04135e+07 3.10879e+07 3.16226e+07
          3.20319e+07 3.23357e+07 3.2555e+07 3.27096e+07 3.28162e+07 3.28885e+07 3.29366e+07 3.29681e+07 3.29885e+07 3.30016e+07 3.30099e+07 3.3015e+07
          3.30183e+07 3.30203e+07 3.30215e+07 3.30223e+07 3.30228e+07 3.30231e+07 3.30235e+07 3.30239e+07 3.30244e+07 3.30253e+07 3.30267e+07 3.3029e+07
          3.30327e+07 3.30389e+07 3.30488e+07 3.30648e+07 3.30903e+07 3.31305e+07 3.31932e+07 3.32897e+07 3.34365e+07 3.3656e+07 3.39789e+07 3.44448e+07
          3.51021e+07 3.60065e+07 3.72157e+07 3.87802e+07 4.07283e+07 4.3059e+07 4.56719e+07 4.95e+07 4.95e+07 4.56625e+07 4.30472e+07 4.07166e+07
          3.87686e+07 3.72041e+07 3.59949e+07 3.50904e+07 3.44331e+07 3.39673e+07 3.36444e+07 3.34248e+07 3.32781e+07 3.31816e+07 3.31189e+07 3.30787e+07
          3.30532e+07 3.30372e+07 3.30272e+07 3.30211e+07 3.30173e+07 3.3015e+07 3.30136e+07 3.30128e+07 3.30122e+07 3.30118e+07 3.30115e+07 3.30111e+07
          3.30106e+07 3.30099e+07 3.30086e+07 3.30066e+07 3.30034e+07 3.29982e+07 3.299e+07 3.29769e+07 3.29565e+07 3.29249e+07 3.28768e+07 3.28046e+07
          3.26979e+07 3.25434e+07 3.2324e+07 3.20203e+07 3.16109e+07 3.10762e+07 3.04019e+07 2.95839e+07 2.86342e+07 2.75712e+07 2.21063e+07 2.75712e+07
          2.86342e+07 2.95839e+07 3.04019e+07 3.10762e+07 3.16109e+07 3.20203e+07 3.2324e+07 3.25434e+07 3.26979e+07 3.28046e+07 3.28768e+07 3.29249e+07
          3.29565e+07 3.29769e+07 3.299e+07 3.29982e+07 3.30034e+07 3.30066e+07 3.30086e+07 3.30099e+07 3.30106e+07 3.30111e+07 3.30115e+07 3.30118e+07
          3.30122e+07 3.30128e+07 3.30136e+07 3.3015e+07 3.30173e+07 3.30211e+07 3.30272e+07 3.30372e+07 3.30532e+07 3.30787e+07 3.31189e+07 3.31816e+07
          3.32781e+07 3.34248e+07 3.36444e+07 3.39673e+07 3.44331e+07 3.50904e+07 3.59949e+07 3.72041e+07 3.87686e+07 4.07166e+07 4.30472e+07 4.56625e+07
          4.95e+07 4.93578e+07 4.56786e+07 4.3031e+07 4.07057e+07 3.87568e+07 3.71925e+07 3.59832e+07 3.50788e+07 3.44215e+07 3.39557e+07 3.36327e+07
          3.34132e+07 3.32665e+07 3.31699e+07 3.31072e+07 3.30671e+07 3.30416e+07 3.30256e+07 3.30156e+07 3.30095e+07 3.30057e+07 3.30034e+07 3.3002e+07
          3.30011e+07 3.30006e+07 3.30002e+07 3.29999e+07 3.29995e+07 3.2999e+07 3.29982e+07 3.2997e+07 3.2995e+07 3.29918e+07 3.29866e+07 3.29783e+07
          3.29653e+07 3.29448e+07 3.29133e+07 3.28652e+07 3.2793e+07 3.26863e+07 3.25317e+07 3.23124e+07 3.20086e+07 3.15993e+07 3.10646e+07 3.03902e+07
          2.95725e+07 2.86213e+07 2.75676e+07 2.20586e+07 2.75676e+07 2.86213e+07 2.95725e+07 3.03902e+07 3.10646e+07 3.15993e+07 3.20086e+07 3.23124e+07
          3.25317e+07 3.26863e+07 3.2793e+07 3.28652e+07 3.29133e+07 3.29448e+07 3.29653e+07 3.29783e+07 3.29866e+07 3.29918e+07 3.2995e+07 3.2997e+07
          3.29982e+07 3.2999e+07 3.29995e+07 3.29999e+07 3.30002e+07 3.30006e+07 3.30011e+07 3.3002e+07 3.30034e+07 3.30057e+07 3.30095e+07 3.30156e+07
          3.30256e+07 3.30416e+07 3.30671e+07 3.31072e+07 3.31699e+07 3.32665e+07 3.34132e+07 3.36327e+07 3.39557e+07 3.44215e+07 3.50788e+07 3.59832e+07
          3.71925e+07 3.87568e+07 4.07057e+07 4.3031e+07 4.56786e+07 4.93578e+07 4.92905e+07 4.5681e+07 4.30173e+07 4.06944e+07 3.87451e+07 3.71808e+07
          3.59716e+07 3.50672e+07 3.44099e+07 3.3944e+07 3.36211e+07 3.34016e+07 3.32548e+07 3.31583e+07 3.30956e+07 3.30554e+07 3.30299e+07 3.30139e+07
          3.3004e+07 3.29978e+07 3.29941e+07 3.29918e+07 3.29904e+07 3.29895e+07 3.29889e+07 3.29886e+07 3.29882e+07 3.29879e+07 3.29874e+07 3.29866e+07
          3.29853e+07 3.29834e+07 3.29801e+07 3.2975e+07 3.29667e+07 3.29536e+07 3.29332e+07 3.29017e+07 3.28536e+07 3.27813e+07 3.26747e+07 3.25201e+07
          3.23008e+07 3.1997e+07 3.15877e+07 3.1053e+07 3.03786e+07 2.95611e+07 2.86081e+07 2.75658e+07 2.2e+07 2.75658e+07 2.86081e+07 2.95611e+07
          3.03786e+07 3.1053e+07 3.15877e+07 3.1997e+07 3.23008e+07 3.25201e+07 3.26747e+07 3.27813e+07 3.28536e+07 3.29017e+07 3.29332e+07 3.29536e+07
          3.29667e+07 3.2975e+07 3.29801e+07 3.29834e+07 3.29853e+07 3.29866e+07 3.29874e+07 3.29879e+07 3.29882e+07 3.29886e+07 3.29889e+07 3.29895e+07
          3.29904e+07 3.29918e+07 3.29941e+07 3.29978e+07 3.3004e+07 3.30139e+07 3.30299e+07 3.30554e+07 3.30956e+07 3.31583e+07 3.32548e+07 3.34016e+07
          3.36211e+07 3.3944e+07 3.44099e+07 3.50672e+07 3.59716e+07 3.71808e+07 3.87451e+07 4.06944e+07 4.30173e+07 4.5681e+07 4.92905e+07 4.92388e+07
          4.56796e+07 4.30041e+07 4.0683e+07 3.87334e+07 3.71692e+07 3.59599e+07 3.50555e+07 3.43982e+07 3.39324e+07 3.36095e+07 3.33899e+07 3.32432e+07
          3.31466e+07 3.3084e+07 3.30438e+07 3.30183e+07 3.30023e+07 3.29923e+07 3.29862e+07 3.29824e+07 3.29801e+07 3.29787e+07 3.29779e+07 3.29773e+07
          3.29769e+07 3.29766e+07 3.29762e+07 3.29757e+07 3.29749e+07 3.29737e+07 3.29717e+07 3.29685e+07 3.29633e+07 3.2955e+07 3.2942e+07 3.29216e+07
          3.289e+07 3.28419e+07 3.27697e+07 3.2663e+07 3.25084e+07 3.22891e+07 3.19854e+07 3.1576e+07 3.10413e+07 3.03669e+07 2.95494e+07 2.85966e+07
          2.75539e+07 2.2e+07 2.75539e+07 2.85966e+07 2.95494e+07 3.03669e+07 3.10413e+07 3.1576e+07 3.19854e+07 3.22891e+07 3.25084e+07 3.2663e+07
          3.27697e+07 3.28419e+07 3.289e+07 3.29216e+07 3.2942e+07 3.2955e+07 3.29633e+07 3.29685e+07 3.29717e+07 3.29737e+07 3.29749e+07 3.29757e+07
          3.29762e+07 3.29766e+07 3.29769e+07 3.29773e+07 3.29779e+07 3.29787e+07 3.29801e+07 3.29824e+07 3.29862e+07 3.29923e+07 3.30023e+07 3.30183e+07
          3.30438e+07 3.3084e+07 3.31466e+07 3.32432e+07 3.33899e+07 3.36095e+07 3.39324e+07 3.43982e+07 3.50555e+07 3.59599e+07 3.71692e+07 3.87334e+07
          4.0683e+07 4.30041e+07 4.56796e+07 4.92388e+07 4.91986e+07 4.56752e+07 4.29914e+07 4.06715e+07 3.87218e+07 3.71575e+07 3.59483e+07 3.50439e+07
          3.43866e+07 3.39208e+07 3.35978e+07 3.33783e+07 3.32316e+07 3.3135e+07 3.30723e+07 3.30321e+07 3.30067e+07 3.29907e+07 3.29807e+07 3.29746e+07
          3.29708e+07 3.29685e+07 3.29671e+07 3.29662e+07 3.29657e+07 3.29653e+07 3.2965e+07 3.29646e+07 3.29641e+07 3.29633e+07 3.29621e+07 3.29601e+07
          3.29569e+07 3.29517e+07 3.29434e+07 3.29304e+07 3.29099e+07 3.28784e+07 3.28303e+07 3.27581e+07 3.26514e+07 3.24968e+07 3.22775e+07 3.19737e+07
          3.15644e+07 3.10297e+07 3.03553e+07 2.95378e+07 2.85851e+07 2.75421e+07 2.2e+07 2.75421e+07 2.85851e+07 2.95378e+07 3.03553e+07 3.10297e+07
          3.15644e+07 3.19737e+07 3.22775e+07 3.24968e+07 3.26514e+07 3.27581e+07 3.28303e+07 3.28784e+07 3.29099e+07 3.29304e+07 3.29434e+07 3.29517e+07
          3.29569e+07 3.29601e+07 3.29621e+07 3.29633e+07 3.29641e+07 3.29646e+07 3.2965e+07 3.29653e+07 3.29657e+07 3.29662e+07 3.29671e+07 3.29685e+07
          3.29708e+07 3.29746e+07 3.29807e+07 3.29907e+07 3.30067e+07 3.30321e+07 3.30723e+07 3.3135e+07 3.32316e+07 3.33783e+07 3.35978e+07 3.39208e+07
          3.43866e+07 3.50439e+07 3.59483e+07 3.71575e+07 3.87218e+07 4.06715e+07 4.29914e+07 4.56752e+07 4.91986e+07 4.91699e+07 4.56678e+07 4.29791e+07
          4.06599e+07 3.87101e+07 3.71459e+07 3.59367e+07 3.50322e+07 3.43749e+07 3.39091e+07 3.35862e+07 3.33666e+07 3.32199e+07 3.31234e+07 3.30607e+07
          3.30205e+07 3.2995e+07 3.2979e+07 3.29691e+07 3.29629e+07 3.29592e+07 3.29569e+07 3.29555e+07 3.29546e+07 3.2954e+07 3.29536e+07 3.29533e+07
          3.29529e+07 3.29524e+07 3.29517e+07 3.29504e+07 3.29484e+07 3.29452e+07 3.294e+07 3.29318e+07 3.29187e+07 3.28983e+07 3.28667e+07 3.28187e+07
          3.27464e+07 3.26398e+07 3.24852e+07 3.22658e+07 3.19621e+07 3.15528e+07 3.10181e+07 3.03437e+07 2.95261e+07 2.85735e+07 2.75302e+07 2.2e+07
          2.75302e+07 2.85735e+07 2.95261e+07 3.03437e+07 3.10181e+07 3.15528e+07 3.19621e+07 3.22658e+07 3.24852e+07 3.26398e+07 3.27464e+07 3.28187e+07
          3.28667e+07 3.28983e+07 3.29187e+07 3.29318e+07 3.294e+07 3.29452e+07 3.29484e+07 3.29504e+07 3.29517e+07 3.29524e+07 3.29529e+07 3.29533e+07
          3.29536e+07 3.2954e+07 3.29546e+07 3.29555e+07 3.29569e+07 3.29592e+07 3.29629e+07 3.29691e+07 3.2979e+07 3.2995e+07 3.30205e+07 3.30607e+07
          3.31234e+07 3.32199e+07 3.33666e+07 3.35862e+07 3.39091e+07 3.43749e+07 3.50322e+07 3.59367e+07 3.71459e+07 3.87101e+07 4.06599e+07 4.29791e+07
          4.56678e+07 4.91699e+07 4.91526e+07 4.56576e+07 4.29673e+07 4.06483e+07 3.86985e+07 3.71343e+07 3.5925e+07 3.50206e+07 3.43633e+07 3.38975e+07
          3.35745e+07 3.3355e+07 3.32083e+07 3.31117e+07 3.30491e+07 3.30089e+07 3.29834e+07 3.29674e+07 3.29574e+07 3.29513e+07 3.29475e+07 3.29452e+07
          3.29438e+07 3.2943e+07 3.29424e+07 3.2942e+07 3.29417e+07 3.29413e+07 3.29408e+07 3.294e+07 3.29388e+07 3.29368e+07 3.29336e+07 3.29284e+07
          3.29201e+07 3.29071e+07 3.28867e+07 3.28551e+07 3.2807e+07 3.27348e+07 3.26281e+07 3.24735e+07 3.22542e+07 3.19505e+07 3.15411e+07 3.10064e+07
          3.0332e+07 2.95145e+07 2.85619e+07 2.75186e+07 2.2e+07 2.75186e+07 2.85619e+07 2.95145e+07 3.0332e+07 3.10064e+07 3.15411e+07 3.19505e+07
          3.22542e+07 3.24735e+07 3.26281e+07 3.27348e+07 3.2807e+07 3.28551e+07 3.28867e+07 3.29071e+07 3.29201e+07 3.29284e+07 3.29336e+07 3.29368e+07
          3.29388e+07 3.294e+07 3.29408e+07 3.29413e+07 3.29417e+07 3.2942e+07 3.29424e+07 3.2943e+07 3.29438e+07 3.29452e+07 3.29475e+07 3.29513e+07
          3.29574e+07 3.29674e+07 3.29834e+07 3.30089e+07 3.30491e+07 3.31117e+07 3.32083e+07 3.3355e+07 3.35745e+07 3.38975e+07 3.43633e+07 3.50206e+07
          3.5925e+07 3.71343e+07 3.86985e+07 4.06483e+07 4.29673e+07 4.56576e+07 4.91526e+07
        </DataArray>
        <DataArray type="Float32" Name="pressure_oil" NumberOfComponents="1" format="ascii">
          4.95e+07 4.57075e+07 4.95e+07 4.56944e+07 4.30936e+07 4.30822e+07 4.07634e+07 4.07517e+07 3.88151e+07 3.88035e+07 3.72507e+07 3.7239e+07
          3.60414e+07 3.60298e+07 3.5137e+07 3.51254e+07 3.44797e+07 3.44681e+07 3.40139e+07 3.40022e+07 3.36909e+07 3.36793e+07 3.34714e+07 3.34597e+07
          3.33247e+07 3.3313e+07 3.32281e+07 3.32165e+07 3.31654e+07 3.31538e+07 3.31252e+07 3.31136e+07 3.30998e+07 3.30881e+07 3.30838e+07 3.30721e+07
          3.30738e+07 3.30622e+07 3.30676e+07 3.3056e+07 3.30639e+07 3.30522e+07 3.30616e+07 3.30499e+07 3.30602e+07 3.30485e+07 3.30593e+07 3.30477e+07
          3.30588e+07 3.30471e+07 3.30584e+07 3.30467e+07 3.3058e+07 3.30464e+07 3.30577e+07 3.3046e+07 3.30572e+07 3.30455e+07 3.30564e+07 3.30448e+07
          3.30552e+07 3.30435e+07 3.30532e+07 3.30415e+07 3.305e+07 3.30383e+07 3.30448e+07 3.30331e+07 3.30365e+07 3.30249e+07 3.30234e+07 3.30118e+07
          3.3003e+07 3.29914e+07 3.29715e+07 3.29598e+07 3.29234e+07 3.29117e+07 3.28512e+07 3.28395e+07 3.27445e+07 3.27328e+07 3.25899e+07 3.25783e+07
          3.23706e+07 3.23589e+07 3.20668e+07 3.20552e+07 3.16575e+07 3.16458e+07 3.11228e+07 3.11111e+07 3.04485e+07 3.04368e+07 2.96301e+07 2.96185e+07
          2.8683e+07 2.86712e+07 2.7603e+07 2.75925e+07 2.21993e+07 2.21899e+07 2.7603e+07 2.75925e+07 2.8683e+07 2.86712e+07 2.96301e+07 2.96185e+07
          3.04485e+07 3.04368e+07 3.11228e+07 3.11111e+07 3.16575e+07 3.16458e+07 3.20668e+07 3.20552e+07 3.23706e+07 3.23589e+07 3.25899e+07 3.25783e+07
          3.27445e+07 3.27328e+07 3.28512e+07 3.28395e+07 3.29234e+07 3.29117e+07 3.29715e+07 3.29598e+07 3.3003e+07 3.29914e+07 3.30234e+07 3.30118e+07
          3.30365e+07 3.30249e+07 3.30448e+07 3.30331e+07 3.305e+07 3.30383e+07 3.30532e+07 3.30415e+07 3.30552e+07 3.30435e+07 3.30564e+07 3.30448e+07
          3.30572e+07 3.30455e+07 3.30577e+07 3.3046e+07 3.3058e+07 3.30464e+07 3.30584e+07 3.30467e+07 3.30588e+07 3.30471e+07 3.30593e+07 3.30477e+07
          3.30602e+07 3.30485e+07 3.30616e+07 3.30499e+07 3.30639e+07 3.30522e+07 3.30676e+07 3.3056e+07 3.30738e+07 3.30622e+07 3.30838e+07 3.30721e+07
          3.30998e+07 3.30881e+07 3.31252e+07 3.31136e+07 3.31654e+07 3.31538e+07 3.32281e+07 3.32165e+07 3.33247e+07 3.3313e+07 3.34714e+07 3.34597e+07
          3.36909e+07 3.36793e+07 3.40139e+07 3.40022e+07 3.44797e+07 3.44681e+07 3.5137e+07 3.51254e+07 3.60414e+07 3.60298e+07 3.72507e+07 3.7239e+07
          3.88151e+07 3.88035e+07 4.07634e+07 4.07517e+07 4.30936e+07 4.30822e+07 4.57075e+07 4.56944e+07 4.95e+07 4.95e+07 4.95e+07 4.56826e+07
          4.30707e+07 4.074e+07 3.87919e+07 3.72274e+07 3.60182e+07 3.51137e+07 3.44564e+07 3.39906e+07 3.36676e+07 3.34481e+07 3.33014e+07 3.32048e+07
          3.31422e+07 3.3102e+07 3.30765e+07 3.30605e+07 3.30505e+07 3.30444e+07 3.30406e+07 3.30383e+07 3.30369e+07 3.3036e+07 3.30355e+07 3.30351e+07
          3.30348e+07 3.30344e+07 3.30339e+07 3.30331e+07 3.30319e+07 3.30299e+07 3.30267e+07 3.30215e+07 3.30132e+07 3.30002e+07 3.29797e+07 3.29482e+07
          3.29001e+07 3.28279e+07 3.27212e+07 3.25666e+07 3.23473e+07 3.20435e+07 3.16342e+07 3.10995e+07 3.04252e+07 2.96069e+07 2.86591e+07 2.75837e+07
          2.21717e+07 2.75837e+07 2.86591e+07 2.96069e+07 3.04252e+07 3.10995e+07 3.16342e+07 3.20435e+07 3.23473e+07 3.25666e+07 3.27212e+07 3.28279e+07
          3.29001e+07 3.29482e+07 3.29797e+07 3.30002e+07 3.30132e+07 3.30215e+07 3.30267e+07 3.30299e+07 3.30319e+07 3.30331e+07 3.30339e+07 3.30344e+07
          3.30348e+07 3.30351e+07 3.30355e+07 3.3036e+07 3.30369e+07 3.30383e+07 3.30406e+07 3.30444e+07 3.30505e+07 3.30605e+07 3.30765e+07 3.3102e+07
          3.31422e+07 3.32048e+07 3.33014e+07 3.34481e+07 3.36676e+07 3.39906e+07 3.44564e+07 3.51137e+07 3.60182e+07 3.72274e+07 3.87919e+07 4.074e+07
          4.30707e+07 4.56826e+07 4.95e+07 4.95e+07 4.56719e+07 4.3059e+07 4.07283e+07 3.87802e+07 3.72157e+07 3.60065e+07 3.51021e+07 3.44448e+07
          3.39789e+07 3.3656e+07 3.34365e+07 3.32897e+07 3.31932e+07 3.31305e+07 3.30903e+07 3.30648e+07 3.30488e+07 3.30389e+07 3.30327e+07 3.3029e+07
          3.30267e+07 3.30253e+07 3.30244e+07 3.30239e+07 3.30235e+07 3.30231e+07 3.30228e+07 3.30223e+07 3.30215e+07 3.30203e+07 3.30183e+07 3.3015e+07
          3.30099e+07 3.30016e+07 3.29885e+07 3.29681e+07 3.29366e+07 3.28885e+07 3.28162e+07 3.27096e+07 3.2555e+07 3.23357e+07 3.20319e+07 3.16226e+07
          3.10879e+07 3.04135e+07 2.95954e+07 2.86468e+07 2.75766e+07 2.21439e+07 2.75766e+07 2.86468e+07 2.95954e+07 3.04135e+07 3.10879e+07 3.16226e+07
          3.20319e+07 3.23357e+07 3.2555e+07 3.27096e+07 3.28162e+07 3.28885e+07 3.29366e+07 3.29681e+07 3.29885e+07 3.30016e+07 3.30099e+07 3.3015e+07
          3.30183e+07 3.30203e+07 3.30215e+07 3.30223e+07 3.30228e+07 3.30231e+07 3.30235e+07 3.30239e+07 3.30244e+07 3.30253e+07 3.30267e+07 3.3029e+07
          3.30327e+07 3.30389e+07 3.30488e+07 3.30648e+07 3.30903e+07 3.31305e+07 3.31932e+07 3.32897e+07 3.34365e+07 3.3656e+07 3.39789e+07 3.44448e+07
          3.51021e+07 3.60065e+07 3.72157e+07 3.87802e+07 4.07283e+07 4.3059e+07 4.56719e+07 4.95e+07 4.95e+07 4.56625e+07 4.30472e+07 4.07166e+07
          3.87686e+07 3.72041e+07 3.59949e+07 3.50904e+07 3.44331e+07 3.39673e+07 3.36444e+07 3.34248e+07 3.32781e+07 3.31816e+07 3.31189e+07 3.30787e+07
          3.30532e+07 3.30372e+07 3.30272e+07 3.30211e+07 3.30173e+07 3.3015e+07 3.30136e+07 3.30128e+07 3.30122e+07 3.30118e+07 3.30115e+07 3.30111e+07
          3.30106e+07 3.30099e+07 3.30086e+07 3.30066e+07 3.30034e+07 3.29982e+07 3.299e+07 3.29769e+07 3.29565e+07 3.29249e+07 3.28768e+07 3.28046e+07
          3.26979e+07 3.25434e+07 3.2324e+07 3.20203e+07 3.16109e+07 3.10762e+07 3.04019e+07 2.95839e+07 2.86342e+07 2.75712e+07 2.21063e+07 2.75712e+07
          2.86342e+07 2.95839e+07 3.04019e+07 3.10762e+07 3.16109e+07 3.20203e+07 3.2324e+07 3.25434e+07 3.26979e+07 3.28046e+07 3.28768e+07 3.29249e+07
          3.29565e+07 3.29769e+07 3.299e+07 3.29982e+07 3.30034e+07 3.30066e+07 3.30086e+07 3.30099e+07 3.30106e+07 3.30111e+07 3.30115e+07 3.30118e+07
          3.30122e+07 3.30128e+07 3.30136e+07 3.3015e+07 3.30173e+07 3.30211e+07 3.30272e+07 3.30372e+07 3.30532e+07 3.30787e+07 3.31189e+07 3.31816e+07
          3.32781e+07 3.34248e+07 3.36444e+07 3.39673e+07 3.44331e+07 3.50904e+07 3.59949e+07 3.72041e+07 3.87686e+07 4.07166e+07 4.30472e+07 4.56625e+07
          4.95e+07 4.93578e+07 4.56786e+07 4.3031e+07 4.07057e+07 3.87568e+07 3.71925e+07 3.59832e+07 3.50788e+07 3.44215e+07 3.39557e+07 3.36327e+07
          3.34132e+07 3.32665e+07 3.31699e+07 3.31072e+07 3.30671e+07 3.30416e+07 3.30256e+07 3.30156e+07 3.30095e+07 3.30057e+07 3.30034e+07 3.3002e+07
          3.30011e+07 3.30006e+07 3.30002e+07 3.29999e+07 3.29995e+07 3.2999e+07 3.29982e+07 3.2997e+07 3.2995e+07 3.29918e+07 3.29866e+07 3.29783e+07
          3.29653e+07 3.29448e+07 3.29133e+07 3.28652e+07 3.2793e+07 3.26863e+07 3.25317e+07 3.23124e+07 3.20086e+07 3.15993e+07 3.10646e+07 3.03902e+07
          2.95725e+07 2.86213e+07 2.75676e+07 2.20586e+07 2.75676e+07 2.86213e+07 2.95725e+07 3.03902e+07 3.10646e+07 3.15993e+07 3.20086e+07 3.23124e+07
          3.25317e+07 3.26863e+07 3.2793e+07 3.28652e+07 3.29133e+07 3.29448e+07 3.29653e+07 3.29783e+07 3.29866e+07 3.29918e+07 3.2995e+07 3.2997e+07
          3.29982e+07 3.2999e+07 3.29995e+07 3.29999e+07 3.30002e+07 3.30006e+07 3.30011e+07 3.3002e+07 3.30034e+07 3.30057e+07 3.30095e+07 3.30156e+07
          3.30256e+07 3.30416e+07 3.30671e+07 3.31072e+07 3.31699e+07 3.32665e+07 3.34132e+07 3.36327e+07 3.39557e+07 3.44215e+07 3.50788e+07 3.59832e+07
          3.71925e+07 3.87568e+07 4.07057e+07 4.3031e+07 4.56786e+07 4.93578e+07 4.92905e+07 4.5681e+07 4.30173e+07 4.06944e+07 3.87451e+07 3.71808e+07
          3.59716e+07 3.50672e+07 3.44099e+07 3.3944e+07 3.36211e+07 3.34016e+07 3.32548e+07 3.31583e+07 3.30956e+07 3.30554e+07 3.30299e+07 3.30139e+07
          3.3004e+07 3.29978e+07 3.29941e+07 3.29918e+07 3.29904e+07 3.29895e+07 3.29889e+07 3.29886e+07 3.29882e+07 3.29879e+07 3.29874e+07 3.29866e+07
          3.29853e+07 3.29834e+07 3.29801e+07 3.2975e+07 3.29667e+07 3.29536e+07 3.29332e+07 3.29017e+07 3.28536e+07 3.27813e+07 3.26747e+07 3.25201e+07
          3.23008e+07 3.1997e+07 3.15877e+07 3.1053e+07 3.03786e+07 2.95611e+07 2.86081e+07 2.75658e+07 2.2e+07 2.75658e+07 2.86081e+07 2.95611e+07
          3.03786e+07 3.1053e+07 3.15877e+07 3.1997e+07 3.23008e+07 3.25201e+07 3.26747e+07 3.27813e+07 3.28536e+07 3.29017e+07 3.29332e+07 3.29536e+07
          3.29667e+07 3.2975e+07 3.29801e+07 3.29834e+07 3.29853e+07 3.29866e+07 3.29874e+07 3.29879e+07 3.29882e+07 3.29886e+07 3.29889e+07 3.29895e+07
          3.29904e+07 3.29918e+07 3.29941e+07 3.29978e+07 3.3004e+07 3.30139e+07 3.30299e+07 3.30554e+07 3.30956e+07 3.31583e+07 3.32548e+07 3.34016e+07
          3.36211e+07 3.3944e+07 3.44099e+07 3.50672e+07 3.59716e+07 3.71808e+07 3.87451e+07 4.06944e+07 4.30173e+07 4.5681e+07 4.92905e+07 4.92388e+07
          4.56796e+07 4.30041e+07 4.0683e+07 3.87334e+07 3.71692e+07 3.59599e+07 3.50555e+07 3.43982e+07 3.39324e+07 3.36095e+07 3.33899e+07 3.32432e+07
          3.31466e+07 3.3084e+07 3.30438e+07 3.30183e+07 3.30023e+07 3.29923e+07 3.29862e+07 3.29824e+07 3.29801e+07 3.29787e+07 3.29779e+07 3.29773e+07
          3.29769e+07 3.29766e+07 3.29762e+07 3.29757e+07 3.29749e+07 3.29737e+07 3.29717e+07 3.29685e+07 3.29633e+07 3.2955e+07 3.2942e+07 3.29216e+07
          3.289e+07 3.28419e+07 3.27697e+07 3.2663e+07 3.25084e+07 3.22891e+07 3.19854e+07 3.1576e+07 3.10413e+07 3.03669e+07 2.95494e+07 2.85966e+07
          2.75539e+07 2.2e+07 2.75539e+07 2.85966e+07 2.95494e+07 3.03669e+07 3.10413e+07 3.1576e+07 3.19854e+07 3.22891e+07 3.25084e+07 3.2663e+07
          3.27697e+07 3.28419e+07 3.289e+07 3.29216e+07 3.2942e+07 3.2955e+07 3.29633e+07 3.29685e+07 3.29717e+07 3.29737e+07 3.29749e+07 3.29757e+07
          3.29762e+07 3.29766e+07 3.29769e+07 3.29773e+07 3.29779e+07 3.29787e+07 3.29801e+07 3.29824e+07 3.29862e+07 3.29923e+07 3.30023e+07 3.30183e+07
          3.30438e+07 3.3084e+07 3.31466e+07 3.32432e+07 3.33899e+07 3.36095e+07 3.39324e+07 3.43982e+07 3.50555e+07 3.59599e+07 3.71692e+07 3.87334e+07
          4.0683e+07 4.30041e+07 4.56796e+07 4.92388e+07 4.91986e+07 4.56752e+07 4.29914e+07 4.06715e+07 3.87218e+07 3.71575e+07 3.59483e+07 3.50439e+07
          3.43866e+07 3.39208e+07 3.35978e+07 3.33783e+07 3.32316e+07 3.3135e+07 3.30723e+07 3.30321e+07 3.30067e+07 3.29907e+07 3.29807e+07 3.29746e+07
          3.29708e+07 3.29685e+07 3.29671e+07 3.29662e+07 3.29657e+07 3.29653e+07 3.2965e+07 3.29646e+07 3.29641e+07 3.29633e+07 3.29621e+07 3.29601e+07
          3.29569e+07 3.29517e+07 3.29434e+07 3.29304e+07 3.29099e+07 3.28784e+07 3.28303e+07 3.27581e+07 3.26514e+07 3.24968e+07 3.22775e+07 3.19737e+07
          3.15644e+07 3.10297e+07 3.03553e+07 2.95378e+07 2.85851e+07 2.75421e+07 2.2e+07 2.75421e+07 2.85851e+07 2.95378e+07 3.03553e+07 3.10297e+07
          3.15644e+07 3.19737e+07 3.22775e+07 3.24968e+07 3.26514e+07 3.27581e+07 3.28303e+07 3.28784e+07 3.29099e+07 3.29304e+07 3.29434e+07 3.29517e+07
          3.29569e+07 3.29601e+07 3.29621e+07 3.29633e+07 3.29641e+07 3.29646e+07 3.2965e+07 3.29653e+07 3.29657e+07 3.29662e+07 3.29671e+07 3.29685e+07
          3.29708e+07 3.29746e+07 3.29807e+07 3.29907e+07 3.30067e+07 3.30321e+07 3.30723e+07 3.3135e+07 3.32316e+07 3.33783e+07 3.35978e+07 3.39208e+07
          3.43866e+07 3.50439e+07 3.59483e+07 3.71575e+07 3.87218e+07 4.06715e+07 4.29914e+07 4.56752e+07 4.91986e+07 4.91699e+07 4.56678e+07 4.29791e+07
          4.06599e+07 3.87101e+07 3.71459e+07 3.59367e+07 3.50322e+07 3.43749e+07 3.39091e+07 3.35862e+07 3.33666e+07 3.32199e+07 3.31234e+07 3.30607e+07
          3.30205e+07 3.2995e+07 3.2979e+07 3.29691e+07 3.29629e+07 3.29592e+07 3.29569e+07 3.29555e+07 3.29546e+07 3.2954e+07 3.29536e+07 3.29533e+07
          3.29529e+07 3.29524e+07 3.29517e+07 3.29504e+07 3.29484e+07 3.29452e+07 3.294e+07 3.29318e+07 3.29187e+07 3.28983e+07 3.28667e+07 3.28187e+07
          3.27464e+07 3.26398e+07 3.24852e+07 3.22658e+07 3.19621e+07 3.15528e+07 3.10181e+07 3.03437e+07 2.95261e+07 2.85735e+07 2.75302e+07 2.2e+07
          2.75302e+07 2.85735e+07 2.95261e+07 3.03437e+07 3.10181e+07 3.15528e+07 3.19621e+07 3.22658e+07 3.24852e+07 3.26398e+07 3.27464e+07 3.28187e+07
          3.28667e+07 3.28983e+07 3.29187e+07 3.29318e+07 3.294e+07 3.29452e+07 3.29484e+07 3.29504e+07 3.29517e+07 3.29524e+07 3.29529e+07 3.29533e+07
          3.29536e+07 3.2954e+07 3.29546e+07 3.29555e+07 3.29569e+07 3.29592e+07 3.29629e+07 3.29691e+07 3.2979e+07 3.2995e+07 3.30205e+07 3.30607e+07
          3.31234e+07 3.32199e+07 3.33666e+07 3.35862e+07 3.39091e+07 3.43749e+07 3.50322e+07 3.59367e+07 3.71459e+07 3.87101e+07 4.06599e+07 4.29791e+07
          4.56678e+07 4.91699e+07 4.91526e+07 4.56576e+07 4.29673e+07 4.06483e+07 3.86985e+07 3.71343e+07 3.5925e+07 3.50206e+07 3.43633e+07 3.38975e+07
          3.35745e+07 3.3355e+07 3.32083e+07 3.31117e+07 3.30491e+07 3.30089e+07 3.29834e+07 3.29674e+07 3.29574e+07 3.29513e+07 3.29475e+07 3.29452e+07
          3.29438e+07 3.2943e+07 3.29424e+07 3.2942e+07 3.29417e+07 3.29413e+07 3.29408e+07 3.294e+07 3.29388e+07 3.29368e+07 3.29336e+07 3.29284e+07
          3.29201e+07 3.29071e+07 3.28867e+07 3.28551e+07 3.2807e+07 3.27348e+07 3.26281e+07 3.24735e+07 3.22542e+07 3.19505e+07 3.15411e+07 3.10064e+07
          3.0332e+07 2.95145e+07 2.85619e+07 2.75186e+07 2.2e+07 2.75186e+07 2.85619e+07 2.95145e+07 3.0332e+07 3.10064e+07 3.15411e+07 3.19505e+07
          3.22542e+07 3.24735e+07 3.26281e+07 3.27348e+07 3.2807e+07 3.28551e+07 3.28867e+07 3.29071e+07 3.29201e+07 3.29284e+07 3.29336e+07 3.29368e+07
          3.29388e+07 3.294e+07 3.29408e+07 3.29413e+07 3.29417e+07 3.2942e+07 3.29424e+07 3.2943e+07 3.29438e+07 3.29452e+07 3.29475e+07 3.29513e+07
          3.29574e+07 3.29674e+07 3.29834e+07 3.30089e+07 3.30491e+07 3.31117e+07 3.32083e+07 3.3355e+07 3.35745e+07 3.38975e+07 3.43633e+07 3.50206e+07
          3.5925e+07 3.71343e+07 3.86985e+07 4.06483e+07 4.29673e+07 4.56576e+07 4.91526e+07
        </DataArray>
        <DataArray type="Float32" Name="pressure_gas" NumberOfComponents="1" format="ascii">
          4.95e+07 4.57075e+07 4.95e+07 4.56944e+07 4.30936e+07 4.30822e+07 4.07634e+07 4.07517e+07 3.88151e+07 3.88035e+07 3.72507e+07 3.7239e+07
          3.60414e+07 3.60298e+07 3.5137e+07 3.51254e+07 3.44797e+07 3.44681e+07 3.40139e+07 3.40022e+07 3.36909e+07 3.36793e+07 3.34714e+07 3.34597e+07
          3.33247e+07 3.3313e+07 3.32281e+07 3.32165e+07 3.31654e+07 3.31538e+07 3.31252e+07 3.31136e+07 3.30998e+07 3.30881e+07 3.30838e+07 3.30721e+07
          3.30738e+07 3.30622e+07 3.30676e+07 3.3056e+07 3.30639e+07 3.30522e+07 3.30616e+07 3.30499e+07 3.30602e+07 3.30485e+07 3.30593e+07 3.30477e+07
          3.30588e+07 3.30471e+07 3.30584e+07 3.30467e+07 3.3058e+07 3.30464e+07 3.30577e+07 3.3046e+07 3.30572e+07 3.30455e+07 3.30564e+07 3.30448e+07
          3.30552e+07 3.30435e+07 3.30532e+07 3.30415e+07 3.305e+07 3.30383e+07 3.30448e+07 3.30331e+07 3.30365e+07 3.30249e+07 3.30234e+07 3.30118e+07
          3.3003e+07 3.29914e+07 3.29715e+07 3.29598e+07 3.29234e+07 3.29117e+07 3.28512e+07 3.28395e+07 3.27445e+07 3.27328e+07 3.25899e+07 3.25783e+07
          3.23706e+07 3.23589e+07 3.20668e+07 3.20552e+07 3.16575e+07 3.16458e+07 3.11228e+07 3.11111e+07 3.04485e+07 3.04368e+07 2.96301e+07 2.96185e+07