<?xml version="1.0"?>
<VTKFile type="UnstructuredGrid" version="0.1" byte_order="LittleEndian">
  <UnstructuredGrid>
    <Piece NumberOfCells="1000" NumberOfPoints="1111">
      <PointData Scalars="pressure_water">
        <DataArray type="Float32" Name="pressure_water" NumberOfComponents="1" format="ascii">
          4.95e+07 4.85507e+07 4.95e+07 4.85405e+07 4.76402e+07 4.76299e+07 4.68914e+07 4.68811e+07 4.62851e+07 4.62769e+07 4.5742e+07 4.57362e+07
          4.52195e+07 4.52137e+07 4.47015e+07 4.46957e+07 4.41846e+07 4.41788e+07 4.36678e+07 4.3662e+07 4.31511e+07 4.31452e+07 4.26342e+07 4.26284e+07
          4.21173e+07 4.21115e+07 4.16003e+07 4.15945e+07 4.10833e+07 4.10775e+07 4.05662e+07 4.05604e+07 4.0049e+07 4.00432e+07 3.95318e+07 3.9526e+07
          3.90145e+07 3.90087e+07 3.84971e+07 3.84913e+07 3.79797e+07 3.79739e+07 3.74622e+07 3.74564e+07 3.69447e+07 3.69389e+07 3.64271e+07 3.64213e+07
          3.59094e+07 3.59036e+07 3.53917e+07 3.53859e+07 3.48739e+07 3.48681e+07 3.43561e+07 3.43503e+07 3.38382e+07 3.38324e+07 3.33203e+07 3.33145e+07
          3.28023e+07 3.27965e+07 3.22843e+07 3.22785e+07 3.17662e+07 3.17604e+07 3.1248e+07 3.12422e+07 3.07299e+07 3.0724e+07 3.02116e+07 3.02058e+07
          2.96933e+07 2.96875e+07 2.9175e+07 2.91692e+07 2.86563e+07 2.86505e+07 2.81356e+07 2.81298e+07 2.7611e+07 2.76051e+07 2.70808e+07 2.7075e+07
          2.65446e+07 2.65387e+07 2.60019e+07 2.59961e+07 2.54529e+07 2.5447e+07 2.48976e+07 2.48917e+07 2.43363e+07 2.43304e+07 2.37694e+07 2.37635e+07
          2.31978e+07 2.31919e+07 2.26222e+07 2.26163e+07 2.20471e+07 2.20408e+07 2.20473e+07 2.20411e+07 2.26346e+07 2.26287e+07 2.32215e+07 2.32156e+07
          2.38038e+07 2.37979e+07 2.43808e+07 2.43749e+07 2.49518e+07 2.49459e+07 2.55164e+07 2.55105e+07 2.60744e+07 2.60686e+07 2.66257e+07 2.66199e+07
          2.71705e+07 2.71646e+07 2.7709e+07 2.77032e+07 2.82422e+07 2.82364e+07 2.87719e+07 2.87661e+07 2.93002e+07 2.92944e+07 2.98283e+07 2.98225e+07
          3.03565e+07 3.03507e+07 3.08845e+07 3.08787e+07 3.14126e+07 3.14067e+07 3.19405e+07 3.19347e+07 3.24684e+07 3.24626e+07 3.29963e+07 3.29905e+07
          3.35241e+07 3.35183e+07 3.40518e+07 3.4046e+07 3.45795e+07 3.45737e+07 3.51071e+07 3.51013e+07 3.56347e+07 3.56288e+07 3.61621e+07 3.61563e+07
          3.66896e+07 3.66838e+07 3.72169e+07 3.72111e+07 3.77443e+07 3.77384e+07 3.82715e+07 3.82657e+07 3.87987e+07 3.87929e+07 3.93258e+07 3.932e+07
          3.98528e+07 3.9847e+07 4.03798e+07 4.0374e+07 4.09067e+07 4.09009e+07 4.14336e+07 4.14277e+07 4.19603e+07 4.19545e+07 4.2487e+07 4.24812e+07
          4.30137e+07 4.30078e+07 4.35402e+07 4.35344e+07 4.40668e+07 4.4061e+07 4.45935e+07 4.45877e+07 4.51214e+07 4.51156e+07 4.56544e+07 4.56486e+07
          4.62098e+07 4.62012e+07 4.68318e+07 4.68215e+07 4.76011e+07 4.75908e+07 4.8532e+07 4.85217e+07 4.95e+07 4.95e+07 4.95e+07 4.85302e+07
          4.76195e+07 4.68721e+07 4.6271e+07 4.57304e+07 4.52079e+07 4.46899e+07 4.4173e+07 4.36562e+07 4.31394e+07 4.26226e+07 4.21057e+07 4.15887e+07
          4.10717e+07 4.05545e+07 4.00374e+07 3.95201e+07 3.90028e+07 3.84855e+07 3.79681e+07 3.74506e+07 3.6933e+07 3.64154e+07 3.58978e+07 3.53801e+07
          3.48623e+07 3.43445e+07 3.38266e+07 3.33087e+07 3.27907e+07 3.22726e+07 3.17546e+07 3.12364e+07 3.07182e+07 3.02e+07 2.96817e+07 2.91634e+07
          2.86446e+07 2.8124e+07 2.75993e+07 2.70691e+07 2.65329e+07 2.59902e+07 2.54412e+07 2.48858e+07 2.43245e+07 2.37576e+07 2.3186e+07 2.26104e+07
          2.2034e+07 2.20342e+07 2.26228e+07 2.32097e+07 2.3792e+07 2.4369e+07 2.494e+07 2.55047e+07 2.60627e+07 2.6614e+07 2.71588e+07 2.76974e+07
          2.82306e+07 2.87603e+07 2.92885e+07 2.98167e+07 3.03448e+07 3.08729e+07 3.14009e+07 3.19289e+07 3.24568e+07 3.29846e+07 3.35124e+07 3.40402e+07
          3.45678e+07 3.50955e+07 3.5623e+07 3.61505e+07 3.66779e+07 3.72053e+07 3.77326e+07 3.82599e+07 3.8787e+07 3.93141e+07 3.98412e+07 4.03682e+07
          4.08951e+07 4.14219e+07 4.19487e+07 4.24754e+07 4.3002e+07 4.35286e+07 4.40551e+07 4.45819e+07 4.51098e+07 4.56428e+07 4.61953e+07 4.68124e+07
          4.75803e+07 4.85114e+07 4.95e+07 4.95e+07 4.85198e+07 4.76091e+07 4.68652e+07 4.62652e+07 4.57247e+07 4.52021e+07 4.46841e+07 4.41671e+07
          4.36504e+07 4.31336e+07 4.26167e+07 4.20998e+07 4.15829e+07 4.10658e+07 4.05487e+07 4.00316e+07 3.95143e+07 3.8997e+07 3.84797e+07 3.79622e+07
          3.74448e+07 3.69272e+07 3.64096e+07 3.5892e+07 3.53743e+07 3.48565e+07 3.43387e+07 3.38208e+07 3.33028e+07 3.27849e+07 3.22668e+07 3.17487e+07
          3.12306e+07 3.07124e+07 3.01942e+07 2.96759e+07 2.91576e+07 2.86388e+07 2.81181e+07 2.75935e+07 2.70633e+07 2.6527e+07 2.59844e+07 2.54353e+07
          2.48799e+07 2.43186e+07 2.37517e+07 2.31801e+07 2.26045e+07 2.20264e+07 2.20266e+07 2.26168e+07 2.32038e+07 2.37861e+07 2.43631e+07 2.49342e+07
          2.54988e+07 2.60568e+07 2.66082e+07 2.7153e+07 2.76915e+07 2.82247e+07 2.87545e+07 2.92827e+07 2.98109e+07 3.0339e+07 3.08671e+07 3.13951e+07
          3.19231e+07 3.2451e+07 3.29788e+07 3.35066e+07 3.40343e+07 3.4562e+07 3.50896e+07 3.56172e+07 3.61447e+07 3.66721e+07 3.71995e+07 3.77268e+07
          3.8254e+07 3.87812e+07 3.93083e+07 3.98354e+07 4.03623e+07 4.08892e+07 4.14161e+07 4.19429e+07 4.24695e+07 4.29962e+07 4.35227e+07 4.40493e+07
          4.45761e+07 4.5104e+07 4.56371e+07 4.61895e+07 4.68052e+07 4.75699e+07 4.8501e+07 4.95e+07 4.95e+07 4.85094e+07 4.75991e+07 4.68587e+07
          4.62595e+07 4.57189e+07 4.51963e+07 4.46783e+07 4.41613e+07 4.36445e+07 4.31278e+07 4.26109e+07 4.2094e+07 4.1577e+07 4.106e+07 4.05429e+07
          4.00257e+07 3.95085e+07 3.89912e+07 3.84738e+07 3.79564e+07 3.74389e+07 3.69214e+07 3.64038e+07 3.58861e+07 3.53684e+07 3.48507e+07 3.43328e+07
          3.3815e+07 3.3297e+07 3.2779e+07 3.2261e+07 3.17429e+07 3.12248e+07 3.07066e+07 3.01884e+07 2.96701e+07 2.91517e+07 2.8633e+07 2.81123e+07
          2.75876e+07 2.70574e+07 2.65212e+07 2.59785e+07 2.54294e+07 2.48741e+07 2.43127e+07 2.37458e+07 2.31742e+07 2.25986e+07 2.20182e+07 2.20184e+07
          2.26109e+07 2.31978e+07 2.37802e+07 2.43573e+07 2.49283e+07 2.54929e+07 2.6051e+07 2.66023e+07 2.71471e+07 2.76857e+07 2.82189e+07 2.87487e+07
          2.92769e+07 2.98051e+07 3.03332e+07 3.08613e+07 3.13893e+07 3.19173e+07 3.24452e+07 3.2973e+07 3.35008e+07 3.40285e+07 3.45562e+07 3.50838e+07
          3.56114e+07 3.61389e+07 3.66663e+07 3.71937e+07 3.7721e+07 3.82482e+07 3.87754e+07 3.93025e+07 3.98295e+07 4.03565e+07 4.08834e+07 4.14103e+07
          4.1937e+07 4.24637e+07 4.29904e+07 4.35169e+07 4.40435e+07 4.45703e+07 4.50982e+07 4.56313e+07 4.61838e+07 4.67987e+07 4.75599e+07 4.84906e+07
          4.95e+07 4.95e+07 4.84989e+07 4.75897e+07 4.68525e+07 4.62538e+07 4.57132e+07 4.51905e+07 4.46724e+07 4.41555e+07 4.36387e+07 4.31219e+07
          4.26051e+07 4.20882e+07 4.15712e+07 4.10542e+07 4.05371e+07 4.00199e+07 3.95027e+07 3.89854e+07 3.8468e+07 3.79506e+07 3.74331e+07 3.69156e+07
          3.6398e+07 3.58803e+07 3.53626e+07 3.48448e+07 3.4327e+07 3.38091e+07 3.32912e+07 3.27732e+07 3.22552e+07 3.17371e+07 3.1219e+07 3.07008e+07
          3.01825e+07 2.96642e+07 2.91459e+07 2.86272e+07 2.81065e+07 2.75818e+07 2.70516e+07 2.65153e+07 2.59726e+07 2.54235e+07 2.48682e+07 2.43068e+07
          2.37399e+07 2.31682e+07 2.25927e+07 2.20094e+07 2.20095e+07 2.2605e+07 2.31919e+07 2.37743e+07 2.43514e+07 2.49224e+07 2.54871e+07 2.60451e+07
          2.65965e+07 2.71413e+07 2.76799e+07 2.82131e+07 2.87428e+07 2.92711e+07 2.97993e+07 3.03274e+07 3.08555e+07 3.13835e+07 3.19114e+07 3.24393e+07
          3.29672e+07 3.3495e+07 3.40227e+07 3.45504e+07 3.5078e+07 3.56055e+07 3.6133e+07 3.66605e+07 3.71878e+07 3.77151e+07 3.82424e+07 3.87696e+07
          3.92967e+07 3.98237e+07 4.03507e+07 4.08776e+07 4.14044e+07 4.19312e+07 4.24579e+07 4.29845e+07 4.35111e+07 4.40377e+07 4.45644e+07 4.50924e+07
          4.56256e+07 4.61781e+07 4.67924e+07 4.75504e+07 4.84802e+07 4.95e+07 4.94799e+07 4.84885e+07 4.75811e+07 4.68465e+07 4.62481e+07 4.57074e+07
          4.51847e+07 4.46666e+07 4.41497e+07 4.36329e+07 4.31161e+07 4.25993e+07 4.20824e+07 4.15654e+07 4.10483e+07 4.05312e+07 4.00141e+07 3.94968e+07
          3.89796e+07 3.84622e+07 3.79448e+07 3.74273e+07 3.69098e+07 3.63922e+07 3.58745e+07 3.53568e+07 3.4839e+07 3.43212e+07 3.38033e+07 3.32854e+07
          3.27674e+07 3.22494e+07 3.17313e+07 3.12131e+07 3.0695e+07 3.01767e+07 2.96584e+07 2.91401e+07 2.86214e+07 2.81007e+07 2.7576e+07 2.70458e+07
          2.65094e+07 2.59668e+07 2.54177e+07 2.48623e+07 2.43009e+07 2.3734e+07 2.31623e+07 2.25867e+07 2.2e+07 2.2e+07 2.25991e+07 2.3186e+07
          2.37684e+07 2.43455e+07 2.49165e+07 2.54812e+07 2.60393e+07 2.65906e+07 2.71354e+07 2.76741e+07 2.82073e+07 2.8737e+07 2.92653e+07 2.97935e+07
          3.03216e+07 3.08496e+07 3.13777e+07 3.19056e+07 3.24335e+07 3.29614e+07 3.34892e+07 3.40169e+07 3.45446e+07 3.50722e+07 3.55997e+07 3.61272e+07
          3.66546e+07 3.7182e+07 3.77093e+07 3.82366e+07 3.87637e+07 3.92908e+07 3.98179e+07 4.03449e+07 4.08718e+07 4.13986e+07 4.19254e+07 4.24521e+07
          4.29787e+07 4.35053e+07 4.40318e+07 4.45586e+07 4.50866e+07 4.56198e+07 4.61724e+07 4.67864e+07 4.75416e+07 4.84697e+07 4.94797e+07 4.9462e+07
          4.84781e+07 4.75733e+07 4.68407e+07 4.62424e+07 4.57016e+07 4.51788e+07 4.46608e+07 4.41438e+07 4.36271e+07 4.31103e+07 4.25934e+07 4.20765e+07
          4.15596e+07 4.10425e+07 4.05254e+07 4.00083e+07 3.9491e+07 3.89737e+07 3.84564e+07 3.7939e+07 3.74215e+07 3.69039e+07 3.63863e+07 3.58687e+07
          3.5351e+07 3.48332e+07 3.43154e+07 3.37975e+07 3.32796e+07 3.27616e+07 3.22436e+07 3.17255e+07 3.12073e+07 3.06891e+07 3.01709e+07 2.96526e+07
          2.91343e+07 2.86156e+07 2.80948e+07 2.75701e+07 2.70399e+07 2.65036e+07 2.59609e+07 2.54118e+07 2.48564e+07 2.4295e+07 2.37281e+07 2.31564e+07
          2.25808e+07 2.2e+07 2.2e+07 2.25932e+07 2.31801e+07 2.37625e+07 2.43396e+07 2.49106e+07 2.54753e+07 2.60334e+07 2.65848e+07 2.71296e+07
          2.76682e+07 2.82015e+07 2.87312e+07 2.92595e+07 2.97876e+07 3.03158e+07 3.08438e+07 3.13718e+07 3.18998e+07 3.24277e+07 3.29556e+07 3.34833e+07
          3.40111e+07 3.45387e+07 3.50664e+07 3.55939e+07 3.61214e+07 3.66488e+07 3.71762e+07 3.77035e+07 3.82307e+07 3.87579e+07 3.9285e+07 3.98121e+07
          4.0339e+07 4.08659e+07 4.13928e+07 4.19195e+07 4.24462e+07 4.29729e+07 4.34994e+07 4.4026e+07 4.45528e+07 4.50808e+07 4.5614e+07 4.61667e+07
          4.67806e+07 4.75336e+07 4.84593e+07 4.94617e+07 4.94463e+07 4.84677e+07 4.75663e+07 4.6835e+07 4.62367e+07 4.56959e+07 4.5173e+07 4.4655e+07
          4.4138e+07 4.36212e+07 4.31044e+07 4.25876e+07 4.20707e+07 4.15537e+07 4.10367e+07 4.05196e+07 4.00024e+07 3.94852e+07 3.89679e+07 3.84505e+07
          3.79331e+07 3.74157e+07 3.68981e+07 3.63805e+07 3.58629e+07 3.53452e+07 3.48274e+07 3.43096e+07 3.37917e+07 3.32738e+07 3.27558e+07 3.22377e+07
          3.17196e+07 3.12015e+07 3.06833e+07 3.01651e+07 2.96468e+07 2.91285e+07 2.86097e+07 2.8089e+07 2.75643e+07 2.70341e+07 2.64977e+07 2.5955e+07
          2.54059e+07 2.48505e+07 2.42891e+07 2.37222e+07 2.31505e+07 2.25749e+07 2.2e+07 2.2e+07 2.25873e+07 2.31742e+07 2.37566e+07 2.43337e+07
          2.49048e+07 2.54695e+07 2.60275e+07 2.65789e+07 2.71238e+07 2.76624e+07 2.81956e+07 2.87254e+07 2.92537e+07 2.97818e+07 3.03099e+07 3.0838e+07
          3.1366e+07 3.1894e+07 3.24219e+07 3.29497e+07 3.34775e+07 3.40053e+07 3.45329e+07 3.50605e+07 3.55881e+07 3.61156e+07 3.6643e+07 3.71704e+07
          3.76977e+07 3.82249e+07 3.87521e+07 3.92792e+07 3.98062e+07 4.03332e+07 4.08601e+07 4.1387e+07 4.19137e+07 4.24404e+07 4.2967e+07 4.34936e+07
          4.40202e+07 4.4547e+07 4.5075e+07 4.56083e+07 4.6161e+07 4.67748e+07 4.75265e+07 4.84489e+07 4.94459e+07 4.94328e+07 4.84576e+07 4.756e+07
          4.68293e+07 4.6231e+07 4.56901e+07 4.51672e+07 4.46491e+07 4.41322e+07 4.36154e+07 4.30986e+07 4.25818e+07 4.20649e+07 4.15479e+07 4.10309e+07
          4.05138e+07 3.99966e+07 3.94794e+07 3.89621e+07 3.84447e+07 3.79273e+07 3.74098e+07 3.68923e+07 3.63747e+07 3.5857e+07 3.53393e+07 3.48216e+07
          3.43037e+07 3.37859e+07 3.32679e+07 3.275e+07 3.22319e+07 3.17138e+07 3.11957e+07 3.06775e+07 3.01593e+07 2.9641e+07 2.91227e+07 2.86039e+07
          2.80832e+07 2.75585e+07 2.70282e+07 2.64919e+07 2.59492e+07 2.54001e+07 2.48446e+07 2.42833e+07 2.37163e+07 2.31446e+07 2.2569e+07 2.2e+07
          2.2e+07 2.25814e+07 2.31683e+07 2.37507e+07 2.43278e+07 2.48989e+07 2.54636e+07 2.60217e+07 2.65731e+07 2.71179e+07 2.76566e+07 2.81898e+07
          2.87196e+07 2.92478e+07 2.9776e+07 3.03041e+07 3.08322e+07 3.13602e+07 3.18882e+07 3.24161e+07 3.29439e+07 3.34717e+07 3.39994e+07 3.45271e+07
          3.50547e+07 3.55823e+07 3.61098e+07 3.66372e+07 3.71646e+07 3.76919e+07 3.82191e+07 3.87463e+07 3.92734e+07 3.98004e+07 4.03274e+07 4.08543e+07
          4.13811e+07 4.19079e+07 4.24346e+07 4.29612e+07 4.34878e+07 4.40143e+07 4.45411e+07 4.50692e+07 4.56025e+07 4.61553e+07 4.67692e+07 4.75202e+07
          4.84387e+07 4.94323e+07 4.94215e+07 4.84504e+07 4.75542e+07 4.68236e+07 4.62252e+07 4.56842e+07 4.51614e+07 4.46433e+07 4.41263e+07 4.36096e+07
          4.30928e+07 4.2576e+07 4.20591e+07 4.15421e+07 4.1025e+07 4.05079e+07 3.99908e+07 3.94735e+07 3.89563e+07 3.84389e+07 3.79215e+07 3.7404e+07
          3.68865e+07 3.63689e+07 3.58512e+07 3.53335e+07 3.48157e+07 3.42979e+07 3.37801e+07 3.32621e+07 3.27441e+07 3.22261e+07 3.1708e+07 3.11899e+07
          3.06717e+07 3.01535e+07 2.96352e+07 2.91168e+07 2.85981e+07 2.80774e+07 2.75526e+07 2.70224e+07 2.6486e+07 2.59433e+07 2.53942e+07 2.48388e+07
          2.42774e+07 2.37104e+07 2.31387e+07 2.25631e+07 2.2e+07 2.2e+07 2.25755e+07 2.31624e+07 2.37448e+07 2.43219e+07 2.4893e+07 2.54577e+07
          2.60158e+07 2.65672e+07 2.71121e+07 2.76507e+07 2.8184e+07 2.87138e+07 2.9242e+07 2.97702e+07 3.02983e+07 3.08264e+07 3.13544e+07 3.18824e+07
          3.24103e+07 3.29381e+07 3.34659e+07 3.39936e+07 3.45213e+07 3.50489e+07 3.55764e+07 3.61039e+07 3.66314e+07 3.71587e+07 3.7686e+07 3.82133e+07
          3.87404e+07 3.92675e+07 3.97946e+07 4.03216e+07 4.08485e+07 4.13753e+07 4.19021e+07 4.24288e+07 4.29554e+07 4.3482e+07 4.40085e+07 4.45353e+07
          4.50633e+07 4.55966e+07 4.61495e+07 4.67634e+07 4.75144e+07 4.84314e+07 4.9421e+07
        </DataArray>
        <DataArray type="Float32" Name="pressure_oil" NumberOfComponents="1" format="ascii">
          4.95e+07 4.85507e+07 4.95e+07 4.85405e+07 4.76402e+07 4.76299e+07 4.68914e+07 4.68811e+07 4.62851e+07 4.62769e+07 4.5742e+07 4.57362e+07
          4.52195e+07 4.52137e+07 4.47015e+07 4.46957e+07 4.41846e+07 4.41788e+07 4.36678e+07 4.3662e+07 4.31511e+07 4.31452e+07 4.26342e+07 4.26284e+07
          4.21173e+07 4.21115e+07 4.16003e+07 4.15945e+07 4.10833e+07 4.10775e+07 4.05662e+07 4.05604e+07 4.0049e+07 4.00432e+07 3.95318e+07 3.9526e+07
          3.90145e+07 3.90087e+07 3.84971e+07 3.84913e+07 3.79797e+07 3.79739e+07 3.74622e+07 3.74564e+07 3.69447e+07 3.69389e+07 3.64271e+07 3.64213e+07
          3.59094e+07 3.59036e+07 3.53917e+07 3.53859e+07 3.48739e+07 3.48681e+07 3.43561e+07 3.43503e+07 3.38382e+07 3.38324e+07 3.33203e+07 3.33145e+07
          3.28023e+07 3.27965e+07 3.22843e+07 3.22785e+07 3.17662e+07 3.17604e+07 3.1248e+07 3.12422e+07 3.07299e+07 3.0724e+07 3.02116e+07 3.02058e+07
          2.96933e+07 2.96875e+07 2.9175e+07 2.91692e+07 2.86563e+07 2.86505e+07 2.81356e+07 2.81298e+07 2.7611e+07 2.76051e+07 2.70808e+07 2.7075e+07
          2.65446e+07 2.65387e+07 2.60019e+07 2.59961e+07 2.54529e+07 2.5447e+07 2.48976e+07 2.48917e+07 2.43363e+07 2.43304e+07 2.37694e+07 2.37635e+07
          2.31978e+07 2.31919e+07 2.26222e+07 2.26163e+07 2.20471e+07 2.20408e+07 2.20473e+07 2.20411e+07 2.26346e+07 2.26287e+07 2.32215e+07 2.32156e+07
          2.38038e+07 2.37979e+07 2.43808e+07 2.43749e+07 2.49518e+07 2.49459e+07 2.55164e+07 2.55105e+07 2.60744e+07 2.60686e+07 2.66257e+07 2.66199e+07
          2.71705e+07 2.71646e+07 2.7709e+07 2.77032e+07 2.82422e+07 2.82364e+07 2.87719e+07 2.87661e+07 2.93002e+07 2.92944e+07 2.98283e+07 2.98225e+07
          3.03565e+07 3.03507e+07 3.08845e+07 3.08787e+07 3.14126e+07 3.14067e+07 3.19405e+07 3.19347e+07 3.24684e+07 3.24626e+07 3.29963e+07 3.29905e+07
          3.35241e+07 3.35183e+07 3.40518e+07 3.4046e+07 3.45795e+07 3.45737e+07 3.51071e+07 3.51013e+07 3.56347e+07 3.56288e+07 3.61621e+07 3.61563e+07
          3.66896e+07 3.66838e+07 3.72169e+07 3.72111e+07 3.77443e+07 3.77384e+07 3.82715e+07 3.82657e+07 3.87987e+07 3.87929e+07 3.93258e+07 3.932e+07
          3.98528e+07 3.9847e+07 4.03798e+07 4.0374e+07 4.09067e+07 4.09009e+07 4.14336e+07 4.14277e+07 4.19603e+07 4.19545e+07 4.2487e+07 4.24812e+07
          4.30137e+07 4.30078e+07 4.35402e+07 4.35344e+07 4.40668e+07 4.4061e+07 4.45935e+07 4.45877e+07 4.51214e+07 4.51156e+07 4.56544e+07 4.56486e+07
          4.62098e+07 4.62012e+07 4.68318e+07 4.68215e+07 4.76011e+07 4.75908e+07 4.8532e+07 4.85217e+07 4.95e+07 4.95e+07 4.95e+07 4.85302e+07
          4.76195e+07 4.68721e+07 4.6271e+07 4.57304e+07 4.52079e+07 4.46899e+07 4.4173e+07 4.36562e+07 4.31394e+07 4.26226e+07 4.21057e+07 4.15887e+07
          4.10717e+07 4.05545e+07 4.00374e+07 3.95201e+07 3.90028e+07 3.84855e+07 3.79681e+07 3.74506e+07 3.6933e+07 3.64154e+07 3.58978e+07 3.53801e+07
          3.48623e+07 3.43445e+07 3.38266e+07 3.33087e+07 3.27907e+07 3.22726e+07 3.17546e+07 3.12364e+07 3.07182e+07 3.02e+07 2.96817e+07 2.91634e+07
          2.86446e+07 2.8124e+07 2.75993e+07 2.70691e+07 2.65329e+07 2.59902e+07 2.54412e+07 2.48858e+07 2.43245e+07 2.37576e+07 2.3186e+07 2.26104e+07
          2.2034e+07 2.20342e+07 2.26228e+07 2.32097e+07 2.3792e+07 2.4369e+07 2.494e+07 2.55047e+07 2.60627e+07 2.6614e+07 2.71588e+07 2.76974e+07
          2.82306e+07 2.87603e+07 2.92885e+07 2.98167e+07 3.03448e+07 3.08729e+07 3.14009e+07 3.19289e+07 3.24568e+07 3.29846e+07 3.35124e+07 3.40402e+07
          3.45678e+07 3.50955e+07 3.5623e+07 3.61505e+07 3.66779e+07 3.72053e+07 3.77326e+07 3.82599e+07 3.8787e+07 3.93141e+07 3.98412e+07 4.03682e+07
          4.08951e+07 4.14219e+07 4.19487e+07 4.24754e+07 4.3002e+07 4.35286e+07 4.40551e+07 4.45819e+07 4.51098e+07 4.56428e+07 4.61953e+07 4.68124e+07
          4.75803e+07 4.85114e+07 4.95e+07 4.95e+07 4.85198e+07 4.76091e+07 4.68652e+07 4.62652e+07 4.57247e+07 4.52021e+07 4.46841e+07 4.41671e+07
          4.36504e+07 4.31336e+07 4.26167e+07 4.20998e+07 4.15829e+07 4.10658e+07 4.05487e+07 4.00316e+07 3.95143e+07 3.8997e+07 3.84797e+07 3.79622e+07
          3.74448e+07 3.69272e+07 3.64096e+07 3.5892e+07 3.53743e+07 3.48565e+07 3.43387e+07 3.38208e+07 3.33028e+07 3.27849e+07 3.22668e+07 3.17487e+07
          3.12306e+07 3.07124e+07 3.01942e+07 2.96759e+07 2.91576e+07 2.86388e+07 2.81181e+07 2.75935e+07 2.70633e+07 2.6527e+07 2.59844e+07 2.54353e+07
          2.48799e+07 2.43186e+07 2.37517e+07 2.31801e+07 2.26045e+07 2.20264e+07 2.20266e+07 2.26168e+07 2.32038e+07 2.37861e+07 2.43631e+07 2.49342e+07
          2.54988e+07 2.60568e+07 2.66082e+07 2.7153e+07 2.76915e+07 2.82247e+07 2.87545e+07 2.92827e+07 2.98109e+07 3.0339e+07 3.08671e+07 3.13951e+07
          3.19231e+07 3.2451e+07 3.29788e+07 3.35066e+07 3.40343e+07 3.4562e+07 3.50896e+07 3.56172e+07 3.61447e+07 3.66721e+07 3.71995e+07 3.77268e+07
          3.8254e+07 3.87812e+07 3.93083e+07 3.98354e+07 4.03623e+07 4.08892e+07 4.14161e+07 4.19429e+07 4.24695e+07 4.29962e+07 4.35227e+07 4.40493e+07
          4.45761e+07 4.5104e+07 4.56371e+07 4.61895e+07 4.68052e+07 4.75699e+07 4.8501e+07 4.95e+07 4.95e+07 4.85094e+07 4.75991e+07 4.68587e+07
          4.62595e+07 4.57189e+07 4.51963e+07 4.46783e+07 4.41613e+07 4.36445e+07 4.31278e+07 4.26109e+07 4.2094e+07 4.1577e+07 4.106e+07 4.05429e+07
          4.00257e+07 3.95085e+07 3.89912e+07 3.84738e+07 3.79564e+07 3.74389e+07 3.69214e+07 3.64038e+07 3.58861e+07 3.53684e+07 3.48507e+07 3.43328e+07
          3.3815e+07 3.3297e+07 3.2779e+07 3.2261e+07 3.17429e+07 3.12248e+07 3.07066e+07 3.01884e+07 2.96701e+07 2.91517e+07 2.8633e+07 2.81123e+07
          2.75876e+07 2.70574e+07 2.65212e+07 2.59785e+07 2.54294e+07 2.48741e+07 2.43127e+07 2.37458e+07 2.31742e+07 2.25986e+07 2.20182e+07 2.20184e+07
          2.26109e+07 2.31978e+07 2.37802e+07 2.43573e+07 2.49283e+07 2.54929e+07 2.6051e+07 2.66023e+07 2.71471e+07 2.76857e+07 2.82189e+07 2.87487e+07
          2.92769e+07 2.98051e+07 3.03332e+07 3.08613e+07 3.13893e+07 3.19173e+07 3.24452e+07 3.2973e+07 3.35008e+07 3.40285e+07 3.45562e+07 3.50838e+07
          3.56114e+07 3.61389e+07 3.66663e+07 3.71937e+07 3.7721e+07 3.82482e+07 3.87754e+07 3.93025e+07 3.98295e+07 4.03565e+07 4.08834e+07 4.14103e+07
          4.1937e+07 4.24637e+07 4.29904e+07 4.35169e+07 4.40435e+07 4.45703e+07 4.50982e+07 4.56313e+07 4.61838e+07 4.67987e+07 4.75599e+07 4.84906e+07
          4.95e+07 4.95e+07 4.84989e+07 4.75897e+07 4.68525e+07 4.62538e+07 4.57132e+07 4.51905e+07 4.46724e+07 4.41555e+07 4.36387e+07 4.31219e+07
          4.26051e+07 4.20882e+07 4.15712e+07 4.10542e+07 4.05371e+07 4.00199e+07 3.95027e+07 3.89854e+07 3.8468e+07 3.79506e+07 3.74331e+07 3.69156e+07
          3.6398e+07 3.58803e+07 3.53626e+07 3.48448e+07 3.4327e+07 3.38091e+07 3.32912e+07 3.27732e+07 3.22552e+07 3.17371e+07 3.1219e+07 3.07008e+07
          3.01825e+07 2.96642e+07 2.91459e+07 2.86272e+07 2.81065e+07 2.75818e+07 2.70516e+07 2.65153e+07 2.59726e+07 2.54235e+07 2.48682e+07 2.43068e+07
          2.37399e+07 2.31682e+07 2.25927e+07 2.20094e+07 2.20095e+07 2.2605e+07 2.31919e+07 2.37743e+07 2.43514e+07 2.49224e+07 2.54871e+07 2.60451e+07
          2.65965e+07 2.71413e+07 2.76799e+07 2.82131e+07 2.87428e+07 2.92711e+07 2.97993e+07 3.03274e+07 3.08555e+07 3.13835e+07 3.19114e+07 3.24393e+07
          3.29672e+07 3.3495e+07 3.40227e+07 3.45504e+07 3.5078e+07 3.56055e+07 3.6133e+07 3.66605e+07 3.71878e+07 3.77151e+07 3.82424e+07 3.87696e+07
          3.92967e+07 3.98237e+07 4.03507e+07 4.08776e+07 4.14044e+07 4.19312e+07 4.24579e+07 4.29845e+07 4.35111e+07 4.40377e+07 4.45644e+07 4.50924e+07
          4.56256e+07 4.61781e+07 4.67924e+07 4.75504e+07 4.84802e+07 4.95e+07 4.94799e+07 4.84885e+07 4.75811e+07 4.68465e+07 4.62481e+07 4.57074e+07
          4.51847e+07 4.46666e+07 4.41497e+07 4.36329e+07 4.31161e+07 4.25993e+07 4.20824e+07 4.15654e+07 4.10483e+07 4.05312e+07 4.00141e+07 3.94968e+07
          3.89796e+07 3.84622e+07 3.79448e+07 3.74273e+07 3.69098e+07 3.63922e+07 3.58745e+07 3.53568e+07 3.4839e+07 3.43212e+07 3.38033e+07 3.32854e+07
          3.27674e+07 3.22494e+07 3.17313e+07 3.12131e+07 3.0695e+07 3.01767e+07 2.96584e+07 2.91401e+07 2.86214e+07 2.81007e+07 2.7576e+07 2.70458e+07
          2.65094e+07 2.59668e+07 2.54177e+07 2.48623e+07 2.43009e+07 2.3734e+07 2.31623e+07 2.25867e+07 2.2e+07 2.2e+07 2.25991e+07 2.3186e+07
          2.37684e+07 2.43455e+07 2.49165e+07 2.54812e+07 2.60393e+07 2.65906e+07 2.71354e+07 2.76741e+07 2.82073e+07 2.8737e+07 2.92653e+07 2.97935e+07
          3.03216e+07 3.08496e+07 3.13777e+07 3.19056e+07 3.24335e+07 3.29614e+07 3.34892e+07 3.40169e+07 3.45446e+07 3.50722e+07 3.55997e+07 3.61272e+07
          3.66546e+07 3.7182e+07 3.77093e+07 3.82366e+07 3.87637e+07 3.92908e+07 3.98179e+07 4.03449e+07 4.08718e+07 4.13986e+07 4.19254e+07 4.24521e+07
          4.29787e+07 4.35053e+07 4.40318e+07 4.45586e+07 4.50866e+07 4.56198e+07 4.61724e+07 4.67864e+07 4.75416e+07 4.84697e+07 4.94797e+07 4.9462e+07
          4.84781e+07 4.75733e+07 4.68407e+07 4.62424e+07 4.57016e+07 4.51788e+07 4.46608e+07 4.41438e+07 4.36271e+07 4.31103e+07 4.25934e+07 4.20765e+07
          4.15596e+07 4.10425e+07 4.05254e+07 4.00083e+07 3.9491e+07 3.89737e+07 3.84564e+07 3.7939e+07 3.74215e+07 3.69039e+07 3.63863e+07 3.58687e+07
          3.5351e+07 3.48332e+07 3.43154e+07 3.37975e+07 3.32796e+07 3.27616e+07 3.22436e+07 3.17255e+07 3.12073e+07 3.06891e+07 3.01709e+07 2.96526e+07
          2.91343e+07 2.86156e+07 2.80948e+07 2.75701e+07 2.70399e+07 2.65036e+07 2.59609e+07 2.54118e+07 2.48564e+07 2.4295e+07 2.37281e+07 2.31564e+07
          2.25808e+07 2.2e+07 2.2e+07 2.25932e+07 2.31801e+07 2.37625e+07 2.43396e+07 2.49106e+07 2.54753e+07 2.60334e+07 2.65848e+07 2.71296e+07
          2.76682e+07 2.82015e+07 2.87312e+07 2.92595e+07 2.97876e+07 3.03158e+07 3.08438e+07 3.13718e+07 3.18998e+07 3.24277e+07 3.29556e+07 3.34833e+07
          3.40111e+07 3.45387e+07 3.50664e+07 3.55939e+07 3.61214e+07 3.66488e+07 3.71762e+07 3.77035e+07 3.82307e+07 3.87579e+07 3.9285e+07 3.98121e+07
          4.0339e+07 4.08659e+07 4.13928e+07 4.19195e+07 4.24462e+07 4.29729e+07 4.34994e+07 4.4026e+07 4.45528e+07 4.50808e+07 4.5614e+07 4.61667e+07
          4.67806e+07 4.75336e+07 4.84593e+07 4.94617e+07 4.94463e+07 4.84677e+07 4.75663e+07 4.6835e+07 4.62367e+07 4.56959e+07 4.5173e+07 4.4655e+07
          4.4138e+07 4.36212e+07 4.31044e+07 4.25876e+07 4.20707e+07 4.15537e+07 4.10367e+07 4.05196e+07 4.00024e+07 3.94852e+07 3.89679e+07 3.84505e+07
          3.79331e+07 3.74157e+07 3.68981e+07 3.63805e+07 3.58629e+07 3.53452e+07 3.48274e+07 3.43096e+07 3.37917e+07 3.32738e+07 3.27558e+07 3.22377e+07
          3.17196e+07 3.12015e+07 3.06833e+07 3.01651e+07 2.96468e+07 2.91285e+07 2.86097e+07 2.8089e+07 2.75643e+07 2.70341e+07 2.64977e+07 2.5955e+07
          2.54059e+07 2.48505e+07 2.42891e+07 2.37222e+07 2.31505e+07 2.25749e+07 2.2e+07 2.2e+07 2.25873e+07 2.31742e+07 2.37566e+07 2.43337e+07
          2.49048e+07 2.54695e+07 2.60275e+07 2.65789e+07 2.71238e+07 2.76624e+07 2.81956e+07 2.87254e+07 2.92537e+07 2.97818e+07 3.03099e+07 3.0838e+07
          3.1366e+07 3.1894e+07 3.24219e+07 3.29497e+07 3.34775e+07 3.40053e+07 3.45329e+07 3.50605e+07 3.55881e+07 3.61156e+07 3.6643e+07 3.71704e+07
          3.76977e+07 3.82249e+07 3.87521e+07 3.92792e+07 3.98062e+07 4.03332e+07 4.08601e+07 4.1387e+07 4.19137e+07 4.24404e+07 4.2967e+07 4.34936e+07
          4.40202e+07 4.4547e+07 4.5075e+07 4.56083e+07 4.6161e+07 4.67748e+07 4.75265e+07 4.84489e+07 4.94459e+07 4.94328e+07 4.84576e+07 4.756e+07
          4.68293e+07 4.6231e+07 4.56901e+07 4.51672e+07 4.46491e+07 4.41322e+07 4.36154e+07 4.30986e+07 4.25818e+07 4.20649e+07 4.15479e+07 4.10309e+07
          4.05138e+07 3.99966e+07 3.94794e+07 3.89621e+07 3.84447e+07 3.79273e+07 3.74098e+07 3.68923e+07 3.63747e+07 3.5857e+07 3.53393e+07 3.48216e+07
          3.43037e+07 3.37859e+07 3.32679e+07 3.275e+07 3.22319e+07 3.17138e+07 3.11957e+07 3.06775e+07 3.01593e+07 2.9641e+07 2.91227e+07 2.86039e+07
          2.80832e+07 2.75585e+07 2.70282e+07 2.64919e+07 2.59492e+07 2.54001e+07 2.48446e+07 2.42833e+07 2.37163e+07 2.31446e+07 2.2569e+07 2.2e+07
          2.2e+07 2.25814e+07 2.31683e+07 2.37507e+07 2.43278e+07 2.48989e+07 2.54636e+07 2.60217e+07 2.65731e+07 2.71179e+07 2.76566e+07 2.81898e+07
          2.87196e+07 2.92478e+07 2.9776e+07 3.03041e+07 3.08322e+07 3.13602e+07 3.18882e+07 3.24161e+07 3.29439e+07 3.34717e+07 3.39994e+07 3.45271e+07
          3.50547e+07 3.55823e+07 3.61098e+07 3.66372e+07 3.71646e+07 3.76919e+07 3.82191e+07 3.87463e+07 3.92734e+07 3.98004e+07 4.03274e+07 4.08543e+07
          4.13811e+07 4.19079e+07 4.24346e+07 4.29612e+07 4.34878e+07 4.40143e+07 4.45411e+07 4.50692e+07 4.56025e+07 4.61553e+07 4.67692e+07 4.75202e+07
          4.84387e+07 4.94323e+07 4.94215e+07 4.84504e+07 4.75542e+07 4.68236e+07 4.62252e+07 4.56842e+07 4.51614e+07 4.46433e+07 4.41263e+07 4.36096e+07
          4.30928e+07 4.2576e+07 4.20591e+07 4.15421e+07 4.1025e+07 4.05079e+07 3.99908e+07 3.94735e+07 3.89563e+07 3.84389e+07 3.79215e+07 3.7404e+07
          3.68865e+07 3.63689e+07 3.58512e+07 3.53335e+07 3.48157e+07 3.42979e+07 3.37801e+07 3.32621e+07 3.27441e+07 3.22261e+07 3.1708e+07 3.11899e+07
          3.06717e+07 3.01535e+07 2.96352e+07 2.91168e+07 2.85981e+07 2.80774e+07 2.75526e+07 2.70224e+07 2.6486e+07 2.59433e+07 2.53942e+07 2.48388e+07
          2.42774e+07 2.37104e+07 2.31387e+07 2.25631e+07 2.2e+07 2.2e+07 2.25755e+07 2.31624e+07 2.37448e+07 2.43219e+07 2.4893e+07 2.54577e+07
          2.60158e+07 2.65672e+07 2.71121e+07 2.76507e+07 2.8184e+07 2.87138e+07 2.9242e+07 2.97702e+07 3.02983e+07 3.08264e+07 3.13544e+07 3.18824e+07
          3.24103e+07 3.29381e+07 3.34659e+07 3.39936e+07 3.45213e+07 3.50489e+07 3.55764e+07 3.61039e+07 3.66314e+07 3.71587e+07 3.7686e+07 3.82133e+07
          3.87404e+07 3.92675e+07 3.97946e+07 4.03216e+07 4.08485e+07 4.13753e+07 4.19021e+07 4.24288e+07 4.29554e+07 4.3482e+07 4.40085e+07 4.45353e+07
          4.50633e+07 4.55966e+07 4.61495e+07 4.67634e+07 4.75144e+07 4.84314e+07 4.9421e+07
        </DataArray>
        <DataArray type="Float32" Name="pressure_gas" NumberOfComponents="1" format="ascii">
          4.95e+07 4.85507e+07 4.95e+07 4.85405e+07 4.76402e+07 4.76299e+07 4.68914e+07 4.68811e+07 4.62851e+07 4.62769e+07 4.5742e+07 4.57362e+07
          4.52195e+07 4.52137e+07 4.47015e+07 4.46957e+07 4.41846e+07 4.41788e+07 4.36678e+07 4.3662e+07 4.31511e+07 4.31452e+07 4.26342e+07 4.26284e+07
          4.21173e+07 4.21115e+07 4.16003e+07 4.15945e+07 4.10833e+07 4.10775e+07 4.05662e+07 4.05604e+07 4.0049e+07 4.00432e+07 3.95318e+07 3.9526e+07
          3.90145e+07 3.90087e+07 3.84971e+07 3.84913e+07 3.79797e+07 3.79739e+07 3.74622e+07 3.74564e+07 3.69447e+07 3.69389e+07 3.64271e+07 3.64213e+07
          3.59094e+07 3.59036e+07 3.53917e+07 3.53859e+07 3.48739e+07 3.48681e+07 3.43561e+07 3.43503e+07 3.38382e+07 3.38324e+07 3.33203e+07 3.33145e+07
          3.28023e+07 3.27965e+07 3.22843e+07 3.22785e+07 3.17662e+07 3.17604e+07 3.1248e+07 3.12422e+07 3.07299e+07 3.0724e+07 3.02116e+07 3.02058e+07
          2.96933e+07 2.96875e+07 2.9175e+07 2.91692e+07 2.86563e+07 2.86505e+07 2.81356e+07 2.81298e+07 2.7611e+07 2.76051e+07 2.70808e+07 2.7075e+07
          2.65446e+07 2.65387e+07 2.60019e+07 2.59961e+07 2.54529e+07 2.5447e+07 2.48976e+07 2.48917e+07 2.43363e+07 2.43304e+07 2.37694e+07 2.37635e+07