<?xml version="1.0"?>
<VTKFile type="UnstructuredGrid" version="0.1" byte_order="LittleEndian">
  <UnstructuredGrid>
    <Piece NumberOfCells="1000" NumberOfPoints="1111">
      <PointData Scalars="pressure_water">
        <DataArray type="Float32" Name="pressure_water" NumberOfComponents="1" format="ascii">
          4.95e+07 4.60588e+07 4.95e+07 4.60458e+07 4.38188e+07 4.38074e+07 4.16903e+07 4.16786e+07 3.97956e+07 3.9784e+07 3.81747e+07 3.8163e+07
          3.68447e+07 3.68331e+07 3.57944e+07 3.57828e+07 3.49932e+07 3.49815e+07 3.44004e+07 3.43888e+07 3.39735e+07 3.39619e+07 3.3673e+07 3.36614e+07
          3.34657e+07 3.34541e+07 3.33252e+07 3.33135e+07 3.32312e+07 3.32196e+07 3.31693e+07 3.31577e+07 3.31289e+07 3.31173e+07 3.31029e+07 3.30913e+07
          3.30862e+07 3.30746e+07 3.30756e+07 3.3064e+07 3.3069e+07 3.30573e+07 3.30648e+07 3.30532e+07 3.30622e+07 3.30505e+07 3.30605e+07 3.30489e+07
          3.30595e+07 3.30478e+07 3.30587e+07 3.30471e+07 3.30581e+07 3.30465e+07 3.30575e+07 3.30458e+07 3.30567e+07 3.3045e+07 3.30555e+07 3.30439e+07
          3.30538e+07 3.30422e+07 3.30511e+07 3.30395e+07 3.30469e+07 3.30352e+07 3.30402e+07 3.30286e+07 3.303e+07 3.30183e+07 3.30142e+07 3.30025e+07
          3.29901e+07 3.29785e+07 3.29539e+07 3.29423e+07 3.29001e+07 3.28885e+07 3.28212e+07 3.28096e+07 3.27074e+07 3.26957e+07 3.25459e+07 3.25342e+07
          3.23211e+07 3.23095e+07 3.20149e+07 3.20033e+07 3.16075e+07 3.15959e+07 3.10799e+07 3.10682e+07 3.04165e+07 3.04049e+07 2.96089e+07 2.95973e+07
          2.8666e+07 2.86542e+07 2.75731e+07 2.75627e+07 2.22e+07 2.21906e+07 2.75731e+07 2.75627e+07 2.8666e+07 2.86542e+07 2.96089e+07 2.95973e+07
          3.04165e+07 3.04049e+07 3.10799e+07 3.10682e+07 3.16075e+07 3.15959e+07 3.20149e+07 3.20033e+07 3.23211e+07 3.23095e+07 3.25459e+07 3.25342e+07
          3.27074e+07 3.26957e+07 3.28212e+07 3.28096e+07 3.29001e+07 3.28885e+07 3.29539e+07 3.29423e+07 3.29901e+07 3.29785e+07 3.30142e+07 3.30025e+07
          3.303e+07 3.30183e+07 3.30402e+07 3.30286e+07 3.30469e+07 3.30352e+07 3.30511e+07 3.30395e+07 3.30538e+07 3.30422e+07 3.30555e+07 3.30439e+07
          3.30567e+07 3.3045e+07 3.30575e+07 3.30458e+07 3.30581e+07 3.30465e+07 3.30587e+07 3.30471e+07 3.30595e+07 3.30478e+07 3.30605e+07 3.30489e+07
          3.30622e+07 3.30505e+07 3.30648e+07 3.30532e+07 3.3069e+07 3.30573e+07 3.30756e+07 3.3064e+07 3.30862e+07 3.30746e+07 3.31029e+07 3.30913e+07
          3.31289e+07 3.31173e+07 3.31693e+07 3.31577e+07 3.32312e+07 3.32196e+07 3.33252e+07 3.33135e+07 3.34657e+07 3.34541e+07 3.3673e+07 3.36614e+07
          3.39735e+07 3.39619e+07 3.44004e+07 3.43888e+07 3.49932e+07 3.49815e+07 3.57944e+07 3.57828e+07 3.68447e+07 3.68331e+07 3.81747e+07 3.8163e+07
          3.97956e+07 3.9784e+07 4.16903e+07 4.16786e+07 4.38188e+07 4.38074e+07 4.60588e+07 4.60458e+07 4.95e+07 4.95e+07 4.95e+07 4.60345e+07
          4.37959e+07 4.16669e+07 3.97724e+07 3.81514e+07 3.68214e+07 3.57711e+07 3.49699e+07 3.43772e+07 3.39502e+07 3.36498e+07 3.34425e+07 3.33019e+07
          3.3208e+07 3.3146e+07 3.31057e+07 3.30796e+07 3.3063e+07 3.30524e+07 3.30457e+07 3.30415e+07 3.30389e+07 3.30373e+07 3.30362e+07 3.30354e+07
          3.30348e+07 3.30342e+07 3.30334e+07 3.30323e+07 3.30305e+07 3.30278e+07 3.30236e+07 3.3017e+07 3.30067e+07 3.29909e+07 3.29668e+07 3.29306e+07
          3.28768e+07 3.27979e+07 3.26841e+07 3.25226e+07 3.22978e+07 3.19916e+07 3.15843e+07 3.10566e+07 3.03932e+07 2.95858e+07 2.86421e+07 2.75542e+07
          2.21723e+07 2.75542e+07 2.86421e+07 2.95858e+07 3.03932e+07 3.10566e+07 3.15843e+07 3.19916e+07 3.22978e+07 3.25226e+07 3.26841e+07 3.27979e+07
          3.28768e+07 3.29306e+07 3.29668e+07 3.29909e+07 3.30067e+07 3.3017e+07 3.30236e+07 3.30278e+07 3.30305e+07 3.30323e+07 3.30334e+07 3.30342e+07
          3.30348e+07 3.30354e+07 3.30362e+07 3.30373e+07 3.30389e+07 3.30415e+07 3.30457e+07 3.30524e+07 3.3063e+07 3.30796e+07 3.31057e+07 3.3146e+07
          3.3208e+07 3.33019e+07 3.34425e+07 3.36498e+07 3.39502e+07 3.43772e+07 3.49699e+07 3.57711e+07 3.68214e+07 3.81514e+07 3.97724e+07 4.16669e+07
          4.37959e+07 4.60345e+07 4.95e+07 4.95e+07 4.60246e+07 4.37841e+07 4.16553e+07 3.97607e+07 3.81398e+07 3.68098e+07 3.57595e+07 3.49583e+07
          3.43655e+07 3.39386e+07 3.36381e+07 3.34308e+07 3.32903e+07 3.31964e+07 3.31344e+07 3.3094e+07 3.3068e+07 3.30513e+07 3.30407e+07 3.30341e+07
          3.30299e+07 3.30273e+07 3.30256e+07 3.30246e+07 3.30238e+07 3.30232e+07 3.30226e+07 3.30218e+07 3.30206e+07 3.30189e+07 3.30162e+07 3.3012e+07
          3.30054e+07 3.29951e+07 3.29793e+07 3.29552e+07 3.2919e+07 3.28652e+07 3.27863e+07 3.26725e+07 3.2511e+07 3.22862e+07 3.198e+07 3.15726e+07
          3.1045e+07 3.03816e+07 2.95743e+07 2.86297e+07 2.75474e+07 2.21445e+07 2.75474e+07 2.86297e+07 2.95743e+07 3.03816e+07 3.1045e+07 3.15726e+07
          3.198e+07 3.22862e+07 3.2511e+07 3.26725e+07 3.27863e+07 3.28652e+07 3.2919e+07 3.29552e+07 3.29793e+07 3.29951e+07 3.30054e+07 3.3012e+07
          3.30162e+07 3.30189e+07 3.30206e+07 3.30218e+07 3.30226e+07 3.30232e+07 3.30238e+07 3.30246e+07 3.30256e+07 3.30273e+07 3.30299e+07 3.30341e+07
          3.30407e+07 3.30513e+07 3.3068e+07 3.3094e+07 3.31344e+07 3.31964e+07 3.32903e+07 3.34308e+07 3.36381e+07 3.39386e+07 3.43655e+07 3.49583e+07
          3.57595e+07 3.68098e+07 3.81398e+07 3.97607e+07 4.16553e+07 4.37841e+07 4.60246e+07 4.95e+07 4.95e+07 4.60163e+07 4.37722e+07 4.16436e+07
          3.97491e+07 3.81281e+07 3.67982e+07 3.57478e+07 3.49466e+07 3.43539e+07 3.3927e+07 3.36265e+07 3.34192e+07 3.32786e+07 3.31847e+07 3.31228e+07
          3.30824e+07 3.30564e+07 3.30397e+07 3.30291e+07 3.30225e+07 3.30183e+07 3.30157e+07 3.3014e+07 3.30129e+07 3.30122e+07 3.30116e+07 3.30109e+07
          3.30101e+07 3.3009e+07 3.30073e+07 3.30046e+07 3.30003e+07 3.29937e+07 3.29834e+07 3.29676e+07 3.29436e+07 3.29074e+07 3.28536e+07 3.27747e+07
          3.26608e+07 3.24993e+07 3.22746e+07 3.19684e+07 3.1561e+07 3.10334e+07 3.03699e+07 2.95628e+07 2.86171e+07 2.75423e+07 2.21068e+07 2.75423e+07
          2.86171e+07 2.95628e+07 3.03699e+07 3.10334e+07 3.1561e+07 3.19684e+07 3.22746e+07 3.24993e+07 3.26608e+07 3.27747e+07 3.28536e+07 3.29074e+07
          3.29436e+07 3.29676e+07 3.29834e+07 3.29937e+07 3.30003e+07 3.30046e+07 3.30073e+07 3.3009e+07 3.30101e+07 3.30109e+07 3.30116e+07 3.30122e+07
          3.30129e+07 3.3014e+07 3.30157e+07 3.30183e+07 3.30225e+07 3.30291e+07 3.30397e+07 3.30564e+07 3.30824e+07 3.31228e+07 3.31847e+07 3.32786e+07
          3.34192e+07 3.36265e+07 3.3927e+07 3.43539e+07 3.49466e+07 3.57478e+07 3.67982e+07 3.81281e+07 3.97491e+07 4.16436e+07 4.37722e+07 4.60163e+07
          4.95e+07 4.93294e+07 4.60388e+07 4.3755e+07 4.16329e+07 3.97373e+07 3.81165e+07 3.67865e+07 3.57362e+07 3.4935e+07 3.43423e+07 3.39153e+07
          3.36149e+07 3.34076e+07 3.3267e+07 3.31731e+07 3.31112e+07 3.30708e+07 3.30447e+07 3.30281e+07 3.30175e+07 3.30108e+07 3.30066e+07 3.3004e+07
          3.30024e+07 3.30013e+07 3.30005e+07 3.29999e+07 3.29993e+07 3.29985e+07 3.29974e+07 3.29957e+07 3.29929e+07 3.29887e+07 3.29821e+07 3.29718e+07
          3.2956e+07 3.2932e+07 3.28957e+07 3.28419e+07 3.2763e+07 3.26492e+07 3.24877e+07 3.22629e+07 3.19567e+07 3.15494e+07 3.10217e+07 3.03583e+07
          2.95514e+07 2.86042e+07 2.7539e+07 2.20588e+07 2.7539e+07 2.86042e+07 2.95514e+07 3.03583e+07 3.10217e+07 3.15494e+07 3.19567e+07 3.22629e+07
          3.24877e+07 3.26492e+07 3.2763e+07 3.28419e+07 3.28957e+07 3.2932e+07 3.2956e+07 3.29718e+07 3.29821e+07 3.29887e+07 3.29929e+07 3.29957e+07
          3.29974e+07 3.29985e+07 3.29993e+07 3.29999e+07 3.30005e+07 3.30013e+07 3.30024e+07 3.3004e+07 3.30066e+07 3.30108e+07 3.30175e+07 3.30281e+07
          3.30447e+07 3.30708e+07 3.31112e+07 3.31731e+07 3.3267e+07 3.34076e+07 3.36149e+07 3.39153e+07 3.43423e+07 3.4935e+07 3.57362e+07 3.67865e+07
          3.81165e+07 3.97373e+07 4.16329e+07 4.3755e+07 4.60388e+07 4.93294e+07 4.92658e+07 4.60418e+07 4.37412e+07 4.16216e+07 3.97256e+07 3.81049e+07
          3.67749e+07 3.57246e+07 3.49234e+07 3.43306e+07 3.39037e+07 3.36032e+07 3.33959e+07 3.32554e+07 3.31615e+07 3.30995e+07 3.30591e+07 3.30331e+07
          3.30164e+07 3.30059e+07 3.29992e+07 3.2995e+07 3.29924e+07 3.29907e+07 3.29897e+07 3.29889e+07 3.29883e+07 3.29877e+07 3.29869e+07 3.29858e+07
          3.2984e+07 3.29813e+07 3.29771e+07 3.29705e+07 3.29602e+07 3.29444e+07 3.29203e+07 3.28841e+07 3.28303e+07 3.27514e+07 3.26376e+07 3.24761e+07
          3.22513e+07 3.19451e+07 3.15378e+07 3.10101e+07 3.03466e+07 2.954e+07 2.85909e+07 2.75376e+07 2.2e+07 2.75376e+07 2.85909e+07 2.954e+07
          3.03466e+07 3.10101e+07 3.15378e+07 3.19451e+07 3.22513e+07 3.24761e+07 3.26376e+07 3.27514e+07 3.28303e+07 3.28841e+07 3.29203e+07 3.29444e+07
          3.29602e+07 3.29705e+07 3.29771e+07 3.29813e+07 3.2984e+07 3.29858e+07 3.29869e+07 3.29877e+07 3.29883e+07 3.29889e+07 3.29897e+07 3.29907e+07
          3.29924e+07 3.2995e+07 3.29992e+07 3.30059e+07 3.30164e+07 3.30331e+07 3.30591e+07 3.30995e+07 3.31615e+07 3.32554e+07 3.33959e+07 3.36032e+07
          3.39037e+07 3.43306e+07 3.49234e+07 3.57246e+07 3.67749e+07 3.81049e+07 3.97256e+07 4.16216e+07 4.37412e+07 4.60418e+07 4.92658e+07 4.92179e+07
          4.60407e+07 4.3728e+07 4.16101e+07 3.97139e+07 3.80932e+07 3.67632e+07 3.57129e+07 3.49117e+07 3.4319e+07 3.38921e+07 3.35916e+07 3.33843e+07
          3.32437e+07 3.31498e+07 3.30879e+07 3.30475e+07 3.30215e+07 3.30048e+07 3.29942e+07 3.29876e+07 3.29834e+07 3.29808e+07 3.29791e+07 3.2978e+07
          3.29773e+07 3.29767e+07 3.2976e+07 3.29752e+07 3.29741e+07 3.29724e+07 3.29697e+07 3.29654e+07 3.29588e+07 3.29485e+07 3.29327e+07 3.29087e+07
          3.28725e+07 3.28187e+07 3.27398e+07 3.26259e+07 3.24644e+07 3.22397e+07 3.19335e+07 3.15261e+07 3.09985e+07 3.0335e+07 2.95283e+07 2.85794e+07
          2.7526e+07 2.2e+07 2.7526e+07 2.85794e+07 2.95283e+07 3.0335e+07 3.09985e+07 3.15261e+07 3.19335e+07 3.22397e+07 3.24644e+07 3.26259e+07
          3.27398e+07 3.28187e+07 3.28725e+07 3.29087e+07 3.29327e+07 3.29485e+07 3.29588e+07 3.29654e+07 3.29697e+07 3.29724e+07 3.29741e+07 3.29752e+07
          3.2976e+07 3.29767e+07 3.29773e+07 3.2978e+07 3.29791e+07 3.29808e+07 3.29834e+07 3.29876e+07 3.29942e+07 3.30048e+07 3.30215e+07 3.30475e+07
          3.30879e+07 3.31498e+07 3.32437e+07 3.33843e+07 3.35916e+07 3.38921e+07 3.4319e+07 3.49117e+07 3.57129e+07 3.67632e+07 3.80932e+07 3.97139e+07
          4.16101e+07 4.3728e+07 4.60407e+07 4.92179e+07 4.91805e+07 4.60365e+07 4.37153e+07 4.15986e+07 3.97023e+07 3.80816e+07 3.67516e+07 3.57013e+07
          3.49001e+07 3.43073e+07 3.38804e+07 3.358e+07 3.33727e+07 3.32321e+07 3.31382e+07 3.30763e+07 3.30359e+07 3.30098e+07 3.29932e+07 3.29826e+07
          3.29759e+07 3.29717e+07 3.29691e+07 3.29675e+07 3.29664e+07 3.29656e+07 3.2965e+07 3.29644e+07 3.29636e+07 3.29625e+07 3.29608e+07 3.29581e+07
          3.29538e+07 3.29472e+07 3.29369e+07 3.29211e+07 3.28971e+07 3.28608e+07 3.2807e+07 3.27282e+07 3.26143e+07 3.24528e+07 3.22281e+07 3.19218e+07
          3.15145e+07 3.09869e+07 3.03234e+07 2.95167e+07 2.85678e+07 2.75145e+07 2.2e+07 2.75145e+07 2.85678e+07 2.95167e+07 3.03234e+07 3.09869e+07
          3.15145e+07 3.19218e+07 3.22281e+07 3.24528e+07 3.26143e+07 3.27282e+07 3.2807e+07 3.28608e+07 3.28971e+07 3.29211e+07 3.29369e+07 3.29472e+07
          3.29538e+07 3.29581e+07 3.29608e+07 3.29625e+07 3.29636e+07 3.29644e+07 3.2965e+07 3.29656e+07 3.29664e+07 3.29675e+07 3.29691e+07 3.29717e+07
          3.29759e+07 3.29826e+07 3.29932e+07 3.30098e+07 3.30359e+07 3.30763e+07 3.31382e+07 3.32321e+07 3.33727e+07 3.358e+07 3.38804e+07 3.43073e+07
          3.49001e+07 3.57013e+07 3.67516e+07 3.80816e+07 3.97023e+07 4.15986e+07 4.37153e+07 4.60365e+07 4.91805e+07 4.91535e+07 4.60293e+07 4.3703e+07
          4.15871e+07 3.96906e+07 3.80699e+07 3.674e+07 3.56897e+07 3.48884e+07 3.42957e+07 3.38688e+07 3.35683e+07 3.3361e+07 3.32205e+07 3.31266e+07
          3.30646e+07 3.30242e+07 3.29982e+07 3.29815e+07 3.2971e+07 3.29643e+07 3.29601e+07 3.29575e+07 3.29558e+07 3.29548e+07 3.2954e+07 3.29534e+07
          3.29528e+07 3.2952e+07 3.29509e+07 3.29491e+07 3.29464e+07 3.29422e+07 3.29356e+07 3.29253e+07 3.29095e+07 3.28854e+07 3.28492e+07 3.27954e+07
          3.27165e+07 3.26027e+07 3.24412e+07 3.22164e+07 3.19102e+07 3.15029e+07 3.09752e+07 3.03117e+07 2.95051e+07 2.85562e+07 2.7503e+07 2.2e+07
          2.7503e+07 2.85562e+07 2.95051e+07 3.03117e+07 3.09752e+07 3.15029e+07 3.19102e+07 3.22164e+07 3.24412e+07 3.26027e+07 3.27165e+07 3.27954e+07
          3.28492e+07 3.28854e+07 3.29095e+07 3.29253e+07 3.29356e+07 3.29422e+07 3.29464e+07 3.29491e+07 3.29509e+07 3.2952e+07 3.29528e+07 3.29534e+07
          3.2954e+07 3.29548e+07 3.29558e+07 3.29575e+07 3.29601e+07 3.29643e+07 3.2971e+07 3.29815e+07 3.29982e+07 3.30242e+07 3.30646e+07 3.31266e+07
          3.32205e+07 3.3361e+07 3.35683e+07 3.38688e+07 3.42957e+07 3.48884e+07 3.56897e+07 3.674e+07 3.80699e+07 3.96906e+07 4.15871e+07 4.3703e+07
          4.60293e+07 4.91535e+07 4.91367e+07 4.60191e+07 4.36912e+07 4.15754e+07 3.9679e+07 3.80583e+07 3.67283e+07 3.5678e+07 3.48768e+07 3.42841e+07
          3.38572e+07 3.35567e+07 3.33494e+07 3.32088e+07 3.31149e+07 3.3053e+07 3.30126e+07 3.29866e+07 3.29699e+07 3.29593e+07 3.29527e+07 3.29485e+07
          3.29459e+07 3.29442e+07 3.29431e+07 3.29424e+07 3.29418e+07 3.29411e+07 3.29404e+07 3.29392e+07 3.29375e+07 3.29348e+07 3.29305e+07 3.29239e+07
          3.29136e+07 3.28978e+07 3.28738e+07 3.28376e+07 3.27838e+07 3.27049e+07 3.2591e+07 3.24296e+07 3.22048e+07 3.18986e+07 3.14912e+07 3.09636e+07
          3.03001e+07 2.94934e+07 2.85446e+07 2.74914e+07 2.2e+07 2.74914e+07 2.85446e+07 2.94934e+07 3.03001e+07 3.09636e+07 3.14912e+07 3.18986e+07
          3.22048e+07 3.24296e+07 3.2591e+07 3.27049e+07 3.27838e+07 3.28376e+07 3.28738e+07 3.28978e+07 3.29136e+07 3.29239e+07 3.29305e+07 3.29348e+07
          3.29375e+07 3.29392e+07 3.29404e+07 3.29411e+07 3.29418e+07 3.29424e+07 3.29431e+07 3.29442e+07 3.29459e+07 3.29485e+07 3.29527e+07 3.29593e+07
          3.29699e+07 3.29866e+07 3.30126e+07 3.3053e+07 3.31149e+07 3.32088e+07 3.33494e+07 3.35567e+07 3.38572e+07 3.42841e+07 3.48768e+07 3.5678e+07
          3.67283e+07 3.80583e+07 3.9679e+07 4.15754e+07 4.36912e+07 4.60191e+07 4.91367e+07
        </DataArray>
        <DataArray type="Float32" Name="pressure_oil" NumberOfComponents="1" format="ascii">
          4.95e+07 4.60588e+07 4.95e+07 4.60458e+07 4.38188e+07 4.38074e+07 4.16903e+07 4.16786e+07 3.97956e+07 3.9784e+07 3.81747e+07 3.8163e+07
          3.68447e+07 3.68331e+07 3.57944e+07 3.57828e+07 3.49932e+07 3.49815e+07 3.44004e+07 3.43888e+07 3.39735e+07 3.39619e+07 3.3673e+07 3.36614e+07
          3.34657e+07 3.34541e+07 3.33252e+07 3.33135e+07 3.32312e+07 3.32196e+07 3.31693e+07 3.31577e+07 3.31289e+07 3.31173e+07 3.31029e+07 3.30913e+07
          3.30862e+07 3.30746e+07 3.30756e+07 3.3064e+07 3.3069e+07 3.30573e+07 3.30648e+07 3.30532e+07 3.30622e+07 3.30505e+07 3.30605e+07 3.30489e+07
          3.30595e+07 3.30478e+07 3.30587e+07 3.30471e+07 3.30581e+07 3.30465e+07 3.30575e+07 3.30458e+07 3.30567e+07 3.3045e+07 3.30555e+07 3.30439e+07
          3.30538e+07 3.30422e+07 3.30511e+07 3.30395e+07 3.30469e+07 3.30352e+07 3.30402e+07 3.30286e+07 3.303e+07 3.30183e+07 3.30142e+07 3.30025e+07
          3.29901e+07 3.29785e+07 3.29539e+07 3.29423e+07 3.29001e+07 3.28885e+07 3.28212e+07 3.28096e+07 3.27074e+07 3.26957e+07 3.25459e+07 3.25342e+07
          3.23211e+07 3.23095e+07 3.20149e+07 3.20033e+07 3.16075e+07 3.15959e+07 3.10799e+07 3.10682e+07 3.04165e+07 3.04049e+07 2.96089e+07 2.95973e+07
          2.8666e+07 2.86542e+07 2.75731e+07 2.75627e+07 2.22e+07 2.21906e+07 2.75731e+07 2.75627e+07 2.8666e+07 2.86542e+07 2.96089e+07 2.95973e+07
          3.04165e+07 3.04049e+07 3.10799e+07 3.10682e+07 3.16075e+07 3.15959e+07 3.20149e+07 3.20033e+07 3.23211e+07 3.23095e+07 3.25459e+07 3.25342e+07
          3.27074e+07 3.26957e+07 3.28212e+07 3.28096e+07 3.29001e+07 3.28885e+07 3.29539e+07 3.29423e+07 3.29901e+07 3.29785e+07 3.30142e+07 3.30025e+07
          3.303e+07 3.30183e+07 3.30402e+07 3.30286e+07 3.30469e+07 3.30352e+07 3.30511e+07 3.30395e+07 3.30538e+07 3.30422e+07 3.30555e+07 3.30439e+07
          3.30567e+07 3.3045e+07 3.30575e+07 3.30458e+07 3.30581e+07 3.30465e+07 3.30587e+07 3.30471e+07 3.30595e+07 3.30478e+07 3.30605e+07 3.30489e+07
          3.30622e+07 3.30505e+07 3.30648e+07 3.30532e+07 3.3069e+07 3.30573e+07 3.30756e+07 3.3064e+07 3.30862e+07 3.30746e+07 3.31029e+07 3.30913e+07
          3.31289e+07 3.31173e+07 3.31693e+07 3.31577e+07 3.32312e+07 3.32196e+07 3.33252e+07 3.33135e+07 3.34657e+07 3.34541e+07 3.3673e+07 3.36614e+07
          3.39735e+07 3.39619e+07 3.44004e+07 3.43888e+07 3.49932e+07 3.49815e+07 3.57944e+07 3.57828e+07 3.68447e+07 3.68331e+07 3.81747e+07 3.8163e+07
          3.97956e+07 3.9784e+07 4.16903e+07 4.16786e+07 4.38188e+07 4.38074e+07 4.60588e+07 4.60458e+07 4.95e+07 4.95e+07 4.95e+07 4.60345e+07
          4.37959e+07 4.16669e+07 3.97724e+07 3.81514e+07 3.68214e+07 3.57711e+07 3.49699e+07 3.43772e+07 3.39502e+07 3.36498e+07 3.34425e+07 3.33019e+07
          3.3208e+07 3.3146e+07 3.31057e+07 3.30796e+07 3.3063e+07 3.30524e+07 3.30457e+07 3.30415e+07 3.30389e+07 3.30373e+07 3.30362e+07 3.30354e+07
          3.30348e+07 3.30342e+07 3.30334e+07 3.30323e+07 3.30305e+07 3.30278e+07 3.30236e+07 3.3017e+07 3.30067e+07 3.29909e+07 3.29668e+07 3.29306e+07
          3.28768e+07 3.27979e+07 3.26841e+07 3.25226e+07 3.22978e+07 3.19916e+07 3.15843e+07 3.10566e+07 3.03932e+07 2.95858e+07 2.86421e+07 2.75542e+07
          2.21723e+07 2.75542e+07 2.86421e+07 2.95858e+07 3.03932e+07 3.10566e+07 3.15843e+07 3.19916e+07 3.22978e+07 3.25226e+07 3.26841e+07 3.27979e+07
          3.28768e+07 3.29306e+07 3.29668e+07 3.29909e+07 3.30067e+07 3.3017e+07 3.30236e+07 3.30278e+07 3.30305e+07 3.30323e+07 3.30334e+07 3.30342e+07
          3.30348e+07 3.30354e+07 3.30362e+07 3.30373e+07 3.30389e+07 3.30415e+07 3.30457e+07 3.30524e+07 3.3063e+07 3.30796e+07 3.31057e+07 3.3146e+07
          3.3208e+07 3.33019e+07 3.34425e+07 3.36498e+07 3.39502e+07 3.43772e+07 3.49699e+07 3.57711e+07 3.68214e+07 3.81514e+07 3.97724e+07 4.16669e+07
          4.37959e+07 4.60345e+07 4.95e+07 4.95e+07 4.60246e+07 4.37841e+07 4.16553e+07 3.97607e+07 3.81398e+07 3.68098e+07 3.57595e+07 3.49583e+07
          3.43655e+07 3.39386e+07 3.36381e+07 3.34308e+07 3.32903e+07 3.31964e+07 3.31344e+07 3.3094e+07 3.3068e+07 3.30513e+07 3.30407e+07 3.30341e+07
          3.30299e+07 3.30273e+07 3.30256e+07 3.30246e+07 3.30238e+07 3.30232e+07 3.30226e+07 3.30218e+07 3.30206e+07 3.30189e+07 3.30162e+07 3.3012e+07
          3.30054e+07 3.29951e+07 3.29793e+07 3.29552e+07 3.2919e+07 3.28652e+07 3.27863e+07 3.26725e+07 3.2511e+07 3.22862e+07 3.198e+07 3.15726e+07
          3.1045e+07 3.03816e+07 2.95743e+07 2.86297e+07 2.75474e+07 2.21445e+07 2.75474e+07 2.86297e+07 2.95743e+07 3.03816e+07 3.1045e+07 3.15726e+07
          3.198e+07 3.22862e+07 3.2511e+07 3.26725e+07 3.27863e+07 3.28652e+07 3.2919e+07 3.29552e+07 3.29793e+07 3.29951e+07 3.30054e+07 3.3012e+07
          3.30162e+07 3.30189e+07 3.30206e+07 3.30218e+07 3.30226e+07 3.30232e+07 3.30238e+07 3.30246e+07 3.30256e+07 3.30273e+07 3.30299e+07 3.30341e+07
          3.30407e+07 3.30513e+07 3.3068e+07 3.3094e+07 3.31344e+07 3.31964e+07 3.32903e+07 3.34308e+07 3.36381e+07 3.39386e+07 3.43655e+07 3.49583e+07
          3.57595e+07 3.68098e+07 3.81398e+07 3.97607e+07 4.16553e+07 4.37841e+07 4.60246e+07 4.95e+07 4.95e+07 4.60163e+07 4.37722e+07 4.16436e+07
          3.97491e+07 3.81281e+07 3.67982e+07 3.57478e+07 3.49466e+07 3.43539e+07 3.3927e+07 3.36265e+07 3.34192e+07 3.32786e+07 3.31847e+07 3.31228e+07
          3.30824e+07 3.30564e+07 3.30397e+07 3.30291e+07 3.30225e+07 3.30183e+07 3.30157e+07 3.3014e+07 3.30129e+07 3.30122e+07 3.30116e+07 3.30109e+07
          3.30101e+07 3.3009e+07 3.30073e+07 3.30046e+07 3.30003e+07 3.29937e+07 3.29834e+07 3.29676e+07 3.29436e+07 3.29074e+07 3.28536e+07 3.27747e+07
          3.26608e+07 3.24993e+07 3.22746e+07 3.19684e+07 3.1561e+07 3.10334e+07 3.03699e+07 2.95628e+07 2.86171e+07 2.75423e+07 2.21068e+07 2.75423e+07
          2.86171e+07 2.95628e+07 3.03699e+07 3.10334e+07 3.1561e+07 3.19684e+07 3.22746e+07 3.24993e+07 3.26608e+07 3.27747e+07 3.28536e+07 3.29074e+07
          3.29436e+07 3.29676e+07 3.29834e+07 3.29937e+07 3.30003e+07 3.30046e+07 3.30073e+07 3.3009e+07 3.30101e+07 3.30109e+07 3.30116e+07 3.30122e+07
          3.30129e+07 3.3014e+07 3.30157e+07 3.30183e+07 3.30225e+07 3.30291e+07 3.30397e+07 3.30564e+07 3.30824e+07 3.31228e+07 3.31847e+07 3.32786e+07
          3.34192e+07 3.36265e+07 3.3927e+07 3.43539e+07 3.49466e+07 3.57478e+07 3.67982e+07 3.81281e+07 3.97491e+07 4.16436e+07 4.37722e+07 4.60163e+07
          4.95e+07 4.93294e+07 4.60388e+07 4.3755e+07 4.16329e+07 3.97373e+07 3.81165e+07 3.67865e+07 3.57362e+07 3.4935e+07 3.43423e+07 3.39153e+07
          3.36149e+07 3.34076e+07 3.3267e+07 3.31731e+07 3.31112e+07 3.30708e+07 3.30447e+07 3.30281e+07 3.30175e+07 3.30108e+07 3.30066e+07 3.3004e+07
          3.30024e+07 3.30013e+07 3.30005e+07 3.29999e+07 3.29993e+07 3.29985e+07 3.29974e+07 3.29957e+07 3.29929e+07 3.29887e+07 3.29821e+07 3.29718e+07
          3.2956e+07 3.2932e+07 3.28957e+07 3.28419e+07 3.2763e+07 3.26492e+07 3.24877e+07 3.22629e+07 3.19567e+07 3.15494e+07 3.10217e+07 3.03583e+07
          2.95514e+07 2.86042e+07 2.7539e+07 2.20588e+07 2.7539e+07 2.86042e+07 2.95514e+07 3.03583e+07 3.10217e+07 3.15494e+07 3.19567e+07 3.22629e+07
          3.24877e+07 3.26492e+07 3.2763e+07 3.28419e+07 3.28957e+07 3.2932e+07 3.2956e+07 3.29718e+07 3.29821e+07 3.29887e+07 3.29929e+07 3.29957e+07
          3.29974e+07 3.29985e+07 3.29993e+07 3.29999e+07 3.30005e+07 3.30013e+07 3.30024e+07 3.3004e+07 3.30066e+07 3.30108e+07 3.30175e+07 3.30281e+07
          3.30447e+07 3.30708e+07 3.31112e+07 3.31731e+07 3.3267e+07 3.34076e+07 3.36149e+07 3.39153e+07 3.43423e+07 3.4935e+07 3.57362e+07 3.67865e+07
          3.81165e+07 3.97373e+07 4.16329e+07 4.3755e+07 4.60388e+07 4.93294e+07 4.92658e+07 4.60418e+07 4.37412e+07 4.16216e+07 3.97256e+07 3.81049e+07
          3.67749e+07 3.57246e+07 3.49234e+07 3.43306e+07 3.39037e+07 3.36032e+07 3.33959e+07 3.32554e+07 3.31615e+07 3.30995e+07 3.30591e+07 3.30331e+07
          3.30164e+07 3.30059e+07 3.29992e+07 3.2995e+07 3.29924e+07 3.29907e+07 3.29897e+07 3.29889e+07 3.29883e+07 3.29877e+07 3.29869e+07 3.29858e+07
          3.2984e+07 3.29813e+07 3.29771e+07 3.29705e+07 3.29602e+07 3.29444e+07 3.29203e+07 3.28841e+07 3.28303e+07 3.27514e+07 3.26376e+07 3.24761e+07
          3.22513e+07 3.19451e+07 3.15378e+07 3.10101e+07 3.03466e+07 2.954e+07 2.85909e+07 2.75376e+07 2.2e+07 2.75376e+07 2.85909e+07 2.954e+07
          3.03466e+07 3.10101e+07 3.15378e+07 3.19451e+07 3.22513e+07 3.24761e+07 3.26376e+07 3.27514e+07 3.28303e+07 3.28841e+07 3.29203e+07 3.29444e+07
          3.29602e+07 3.29705e+07 3.29771e+07 3.29813e+07 3.2984e+07 3.29858e+07 3.29869e+07 3.29877e+07 3.29883e+07 3.29889e+07 3.29897e+07 3.29907e+07
          3.29924e+07 3.2995e+07 3.29992e+07 3.30059e+07 3.30164e+07 3.30331e+07 3.30591e+07 3.30995e+07 3.31615e+07 3.32554e+07 3.33959e+07 3.36032e+07
          3.39037e+07 3.43306e+07 3.49234e+07 3.57246e+07 3.67749e+07 3.81049e+07 3.97256e+07 4.16216e+07 4.37412e+07 4.60418e+07 4.92658e+07 4.92179e+07
          4.60407e+07 4.3728e+07 4.16101e+07 3.97139e+07 3.80932e+07 3.67632e+07 3.57129e+07 3.49117e+07 3.4319e+07 3.38921e+07 3.35916e+07 3.33843e+07
          3.32437e+07 3.31498e+07 3.30879e+07 3.30475e+07 3.30215e+07 3.30048e+07 3.29942e+07 3.29876e+07 3.29834e+07 3.29808e+07 3.29791e+07 3.2978e+07
          3.29773e+07 3.29767e+07 3.2976e+07 3.29752e+07 3.29741e+07 3.29724e+07 3.29697e+07 3.29654e+07 3.29588e+07 3.29485e+07 3.29327e+07 3.29087e+07
          3.28725e+07 3.28187e+07 3.27398e+07 3.26259e+07 3.24644e+07 3.22397e+07 3.19335e+07 3.15261e+07 3.09985e+07 3.0335e+07 2.95283e+07 2.85794e+07
          2.7526e+07 2.2e+07 2.7526e+07 2.85794e+07 2.95283e+07 3.0335e+07 3.09985e+07 3.15261e+07 3.19335e+07 3.22397e+07 3.24644e+07 3.26259e+07
          3.27398e+07 3.28187e+07 3.28725e+07 3.29087e+07 3.29327e+07 3.29485e+07 3.29588e+07 3.29654e+07 3.29697e+07 3.29724e+07 3.29741e+07 3.29752e+07
          3.2976e+07 3.29767e+07 3.29773e+07 3.2978e+07 3.29791e+07 3.29808e+07 3.29834e+07 3.29876e+07 3.29942e+07 3.30048e+07 3.30215e+07 3.30475e+07
          3.30879e+07 3.31498e+07 3.32437e+07 3.33843e+07 3.35916e+07 3.38921e+07 3.4319e+07 3.49117e+07 3.57129e+07 3.67632e+07 3.80932e+07 3.97139e+07
          4.16101e+07 4.3728e+07 4.60407e+07 4.92179e+07 4.91805e+07 4.60365e+07 4.37153e+07 4.15986e+07 3.97023e+07 3.80816e+07 3.67516e+07 3.57013e+07
          3.49001e+07 3.43073e+07 3.38804e+07 3.358e+07 3.33727e+07 3.32321e+07 3.31382e+07 3.30763e+07 3.30359e+07 3.30098e+07 3.29932e+07 3.29826e+07
          3.29759e+07 3.29717e+07 3.29691e+07 3.29675e+07 3.29664e+07 3.29656e+07 3.2965e+07 3.29644e+07 3.29636e+07 3.29625e+07 3.29608e+07 3.29581e+07
          3.29538e+07 3.29472e+07 3.29369e+07 3.29211e+07 3.28971e+07 3.28608e+07 3.2807e+07 3.27282e+07 3.26143e+07 3.24528e+07 3.22281e+07 3.19218e+07
          3.15145e+07 3.09869e+07 3.03234e+07 2.95167e+07 2.85678e+07 2.75145e+07 2.2e+07 2.75145e+07 2.85678e+07 2.95167e+07 3.03234e+07 3.09869e+07
          3.15145e+07 3.19218e+07 3.22281e+07 3.24528e+07 3.26143e+07 3.27282e+07 3.2807e+07 3.28608e+07 3.28971e+07 3.29211e+07 3.29369e+07 3.29472e+07
          3.29538e+07 3.29581e+07 3.29608e+07 3.29625e+07 3.29636e+07 3.29644e+07 3.2965e+07 3.29656e+07 3.29664e+07 3.29675e+07 3.29691e+07 3.29717e+07
          3.29759e+07 3.29826e+07 3.29932e+07 3.30098e+07 3.30359e+07 3.30763e+07 3.31382e+07 3.32321e+07 3.33727e+07 3.358e+07 3.38804e+07 3.43073e+07
          3.49001e+07 3.57013e+07 3.67516e+07 3.80816e+07 3.97023e+07 4.15986e+07 4.37153e+07 4.60365e+07 4.91805e+07 4.91535e+07 4.60293e+07 4.3703e+07
          4.15871e+07 3.96906e+07 3.80699e+07 3.674e+07 3.56897e+07 3.48884e+07 3.42957e+07 3.38688e+07 3.35683e+07 3.3361e+07 3.32205e+07 3.31266e+07
          3.30646e+07 3.30242e+07 3.29982e+07 3.29815e+07 3.2971e+07 3.29643e+07 3.29601e+07 3.29575e+07 3.29558e+07 3.29548e+07 3.2954e+07 3.29534e+07
          3.29528e+07 3.2952e+07 3.29509e+07 3.29491e+07 3.29464e+07 3.29422e+07 3.29356e+07 3.29253e+07 3.29095e+07 3.28854e+07 3.28492e+07 3.27954e+07
          3.27165e+07 3.26027e+07 3.24412e+07 3.22164e+07 3.19102e+07 3.15029e+07 3.09752e+07 3.03117e+07 2.95051e+07 2.85562e+07 2.7503e+07 2.2e+07
          2.7503e+07 2.85562e+07 2.95051e+07 3.03117e+07 3.09752e+07 3.15029e+07 3.19102e+07 3.22164e+07 3.24412e+07 3.26027e+07 3.27165e+07 3.27954e+07
          3.28492e+07 3.28854e+07 3.29095e+07 3.29253e+07 3.29356e+07 3.29422e+07 3.29464e+07 3.29491e+07 3.29509e+07 3.2952e+07 3.29528e+07 3.29534e+07
          3.2954e+07 3.29548e+07 3.29558e+07 3.29575e+07 3.29601e+07 3.29643e+07 3.2971e+07 3.29815e+07 3.29982e+07 3.30242e+07 3.30646e+07 3.31266e+07
          3.32205e+07 3.3361e+07 3.35683e+07 3.38688e+07 3.42957e+07 3.48884e+07 3.56897e+07 3.674e+07 3.80699e+07 3.96906e+07 4.15871e+07 4.3703e+07
          4.60293e+07 4.91535e+07 4.91367e+07 4.60191e+07 4.36912e+07 4.15754e+07 3.9679e+07 3.80583e+07 3.67283e+07 3.5678e+07 3.48768e+07 3.42841e+07
          3.38572e+07 3.35567e+07 3.33494e+07 3.32088e+07 3.31149e+07 3.3053e+07 3.30126e+07 3.29866e+07 3.29699e+07 3.29593e+07 3.29527e+07 3.29485e+07
          3.29459e+07 3.29442e+07 3.29431e+07 3.29424e+07 3.29418e+07 3.29411e+07 3.29404e+07 3.29392e+07 3.29375e+07 3.29348e+07 3.29305e+07 3.29239e+07
          3.29136e+07 3.28978e+07 3.28738e+07 3.28376e+07 3.27838e+07 3.27049e+07 3.2591e+07 3.24296e+07 3.22048e+07 3.18986e+07 3.14912e+07 3.09636e+07
          3.03001e+07 2.94934e+07 2.85446e+07 2.74914e+07 2.2e+07 2.74914e+07 2.85446e+07 2.94934e+07 3.03001e+07 3.09636e+07 3.14912e+07 3.18986e+07
          3.22048e+07 3.24296e+07 3.2591e+07 3.27049e+07 3.27838e+07 3.28376e+07 3.28738e+07 3.28978e+07 3.29136e+07 3.29239e+07 3.29305e+07 3.29348e+07
          3.29375e+07 3.29392e+07 3.29404e+07 3.29411e+07 3.29418e+07 3.29424e+07 3.29431e+07 3.29442e+07 3.29459e+07 3.29485e+07 3.29527e+07 3.29593e+07
          3.29699e+07 3.29866e+07 3.30126e+07 3.3053e+07 3.31149e+07 3.32088e+07 3.33494e+07 3.35567e+07 3.38572e+07 3.42841e+07 3.48768e+07 3.5678e+07
          3.67283e+07 3.80583e+07 3.9679e+07 4.15754e+07 4.36912e+07 4.60191e+07 4.91367e+07
        </DataArray>
        <DataArray type="Float32" Name="pressure_gas" NumberOfComponents="1" format="ascii">
          4.95e+07 4.60588e+07 4.95e+07 4.60458e+07 4.38188e+07 4.38074e+07 4.16903e+07 4.16786e+07 3.97956e+07 3.9784e+07 3.81747e+07 3.8163e+07
          3.68447e+07 3.68331e+07 3.57944e+07 3.57828e+07 3.49932e+07 3.49815e+07 3.44004e+07 3.43888e+07 3.39735e+07 3.39619e+07 3.3673e+07 3.36614e+07
          3.34657e+07 3.34541e+07 3.33252e+07 3.33135e+07 3.32312e+07 3.32196e+07 3.31693e+07 3.31577e+07 3.31289e+07 3.31173e+07 3.31029e+07 3.30913e+07
          3.30862e+07 3.30746e+07 3.30756e+07 3.3064e+07 3.3069e+07 3.30573e+07 3.30648e+07 3.30532e+07 3.30622e+07 3.30505e+07 3.30605e+07 3.30489e+07
          3.30595e+07 3.30478e+07 3.30587e+07 3.30471e+07 3.30581e+07 3.30465e+07 3.30575e+07 3.30458e+07 3.30567e+07 3.3045e+07 3.30555e+07 3.30439e+07
          3.30538e+07 3.30422e+07 3.30511e+07 3.30395e+07 3.30469e+07 3.30352e+07 3.30402e+07 3.30286e+07 3.303e+07 3.30183e+07 3.30142e+07 3.30025e+07
          3.29901e+07 3.29785e+07 3.29539e+07 3.29423e+07 3.29001e+07 3.28885e+07 3.28212e+07 3.28096e+07 3.27074e+07 3.26957e+07 3.25459e+07 3.25342e+07
          3.23211e+07 3.23095e+07 3.20149e+07 3.20033e+07 3.16075e+07 3.15959e+07 3.10799e+07 3.10682e+07 3.04165e+07 3.04049e+07 2.96089e+07 2.95973e+07