<?xml version="1.0"?>
<VTKFile type="UnstructuredGrid" version="0.1" byte_order="LittleEndian">
  <UnstructuredGrid>
    <Piece NumberOfCells="1000" NumberOfPoints="1111">
      <PointData Scalars="pressure_water">
        <DataArray type="Float32" Name="pressure_water" NumberOfComponents="1" format="ascii">
          4.95e+07 4.8549e+07 4.95e+07 4.85251e+07 4.7723e+07 4.77017e+07 4.71034e+07 4.70922e+07 4.65468e+07 4.65351e+07 4.59996e+07 4.5988e+07
          4.54542e+07 4.54425e+07 4.49089e+07 4.48972e+07 4.43636e+07 4.43519e+07 4.38183e+07 4.38066e+07 4.32729e+07 4.32613e+07 4.27275e+07 4.27159e+07
          4.21822e+07 4.21705e+07 4.16368e+07 4.16251e+07 4.10913e+07 4.10797e+07 4.05459e+07 4.05343e+07 4.00005e+07 3.99889e+07 3.94551e+07 3.94435e+07
          3.89098e+07 3.88981e+07 3.83644e+07 3.83528e+07 3.78191e+07 3.78074e+07 3.72738e+07 3.72622e+07 3.67285e+07 3.67169e+07 3.61833e+07 3.61717e+07
          3.56382e+07 3.56265e+07 3.50931e+07 3.50815e+07 3.45481e+07 3.45364e+07 3.40031e+07 3.39915e+07 3.34582e+07 3.34466e+07 3.29134e+07 3.29018e+07
          3.23687e+07 3.2357e+07 3.18241e+07 3.18124e+07 3.12795e+07 3.12679e+07 3.07351e+07 3.07235e+07 3.01908e+07 3.01792e+07 2.96466e+07 2.9635e+07
          2.91025e+07 2.90909e+07 2.85586e+07 2.8547e+07 2.80137e+07 2.8002e+07 2.74645e+07 2.74528e+07 2.69106e+07 2.68989e+07 2.63537e+07 2.6342e+07
          2.57966e+07 2.57848e+07 2.52428e+07 2.52311e+07 2.46977e+07 2.46859e+07 2.41679e+07 2.41561e+07 2.36625e+07 2.36507e+07 2.31928e+07 2.3181e+07
          2.27705e+07 2.27587e+07 2.24023e+07 2.23904e+07 2.20783e+07 2.20663e+07 2.2079e+07 2.20669e+07 2.24251e+07 2.24133e+07 2.28227e+07 2.28108e+07
          2.32762e+07 2.32644e+07 2.37746e+07 2.37628e+07 2.43048e+07 2.4293e+07 2.48554e+07 2.48436e+07 2.54176e+07 2.54059e+07 2.59852e+07 2.59735e+07
          2.65536e+07 2.65419e+07 2.71195e+07 2.71079e+07 2.76809e+07 2.76692e+07 2.82367e+07 2.8225e+07 2.87889e+07 2.87773e+07 2.9341e+07 2.93294e+07
          2.98933e+07 2.98817e+07 3.04457e+07 3.04341e+07 3.09982e+07 3.09866e+07 3.15509e+07 3.15392e+07 3.21036e+07 3.2092e+07 3.26564e+07 3.26448e+07
          3.32094e+07 3.31977e+07 3.37624e+07 3.37507e+07 3.43155e+07 3.43038e+07 3.48686e+07 3.4857e+07 3.54218e+07 3.54102e+07 3.59751e+07 3.59635e+07
          3.65285e+07 3.65168e+07 3.70819e+07 3.70702e+07 3.76353e+07 3.76236e+07 3.81887e+07 3.81771e+07 3.87422e+07 3.87306e+07 3.92958e+07 3.92841e+07
          3.98493e+07 3.98376e+07 4.04028e+07 4.03912e+07 4.09564e+07 4.09448e+07 4.151e+07 4.14983e+07 4.20635e+07 4.20519e+07 4.2617e+07 4.26054e+07
          4.31706e+07 4.31589e+07 4.37241e+07 4.37124e+07 4.42775e+07 4.42659e+07 4.4831e+07 4.48193e+07 4.53844e+07 4.53727e+07 4.5938e+07 4.59264e+07
          4.64935e+07 4.64818e+07 4.70592e+07 4.70479e+07 4.76911e+07 4.76698e+07 4.85332e+07 4.85094e+07 4.95e+07 4.95e+07 4.95e+07 4.85e+07
          4.76873e+07 4.70811e+07 4.65234e+07 4.59763e+07 4.54308e+07 4.48856e+07 4.43403e+07 4.3795e+07 4.32496e+07 4.27042e+07 4.21589e+07 4.16135e+07
          4.1068e+07 4.05226e+07 3.99772e+07 3.94318e+07 3.88865e+07 3.83411e+07 3.77958e+07 3.72505e+07 3.67053e+07 3.61601e+07 3.56149e+07 3.50698e+07
          3.45248e+07 3.39798e+07 3.34349e+07 3.28901e+07 3.23454e+07 3.18008e+07 3.12563e+07 3.07118e+07 3.01675e+07 2.96233e+07 2.90793e+07 2.85353e+07
          2.79904e+07 2.74412e+07 2.68872e+07 2.63303e+07 2.57731e+07 2.52193e+07 2.46741e+07 2.41443e+07 2.36388e+07 2.31691e+07 2.27467e+07 2.23786e+07
          2.20538e+07 2.20544e+07 2.24015e+07 2.27989e+07 2.32525e+07 2.37509e+07 2.42812e+07 2.48318e+07 2.53941e+07 2.59618e+07 2.65302e+07 2.70962e+07
          2.76576e+07 2.82134e+07 2.87656e+07 2.93178e+07 2.98701e+07 3.04225e+07 3.0975e+07 3.15276e+07 3.20803e+07 3.26332e+07 3.31861e+07 3.37391e+07
          3.42922e+07 3.48453e+07 3.53986e+07 3.59518e+07 3.65052e+07 3.70586e+07 3.7612e+07 3.81655e+07 3.87189e+07 3.92725e+07 3.9826e+07 4.03795e+07
          4.09331e+07 4.14867e+07 4.20402e+07 4.25937e+07 4.31473e+07 4.37007e+07 4.42542e+07 4.48077e+07 4.53611e+07 4.59148e+07 4.64701e+07 4.70368e+07
          4.76548e+07 4.84843e+07 4.95e+07 4.95e+07 4.84743e+07 4.76763e+07 4.70694e+07 4.65118e+07 4.59647e+07 4.54192e+07 4.48739e+07 4.43286e+07
          4.37833e+07 4.3238e+07 4.26926e+07 4.21472e+07 4.16018e+07 4.10564e+07 4.0511e+07 3.99656e+07 3.94202e+07 3.88748e+07 3.83295e+07 3.77842e+07
          3.72389e+07 3.66936e+07 3.61484e+07 3.56033e+07 3.50582e+07 3.45131e+07 3.39682e+07 3.34233e+07 3.28785e+07 3.23338e+07 3.17892e+07 3.12446e+07
          3.07002e+07 3.01559e+07 2.96117e+07 2.90676e+07 2.85237e+07 2.79788e+07 2.74295e+07 2.68755e+07 2.63186e+07 2.57613e+07 2.52075e+07 2.46623e+07
          2.41324e+07 2.36269e+07 2.31572e+07 2.27347e+07 2.23668e+07 2.2041e+07 2.20415e+07 2.23897e+07 2.27869e+07 2.32405e+07 2.3739e+07 2.42693e+07
          2.482e+07 2.53824e+07 2.595e+07 2.65185e+07 2.70845e+07 2.76459e+07 2.82018e+07 2.8754e+07 2.93062e+07 2.98584e+07 3.04108e+07 3.09634e+07
          3.1516e+07 3.20687e+07 3.26215e+07 3.31745e+07 3.37275e+07 3.42805e+07 3.48337e+07 3.53869e+07 3.59402e+07 3.64935e+07 3.70469e+07 3.76003e+07
          3.81538e+07 3.87073e+07 3.92608e+07 3.98144e+07 4.03679e+07 4.09214e+07 4.1475e+07 4.20285e+07 4.25821e+07 4.31356e+07 4.36891e+07 4.42426e+07
          4.4796e+07 4.53494e+07 4.59031e+07 4.64585e+07 4.70252e+07 4.76437e+07 4.84587e+07 4.95e+07 4.95e+07 4.84493e+07 4.76659e+07 4.70578e+07
          4.65002e+07 4.5953e+07 4.54075e+07 4.48622e+07 4.4317e+07 4.37716e+07 4.32263e+07 4.26809e+07 4.21355e+07 4.15901e+07 4.10447e+07 4.04993e+07
          3.99539e+07 3.94085e+07 3.88632e+07 3.83178e+07 3.77725e+07 3.72272e+07 3.6682e+07 3.61368e+07 3.55916e+07 3.50465e+07 3.45015e+07 3.39565e+07
          3.34117e+07 3.28669e+07 3.23221e+07 3.17775e+07 3.1233e+07 3.06886e+07 3.01443e+07 2.96001e+07 2.9056e+07 2.85121e+07 2.79671e+07 2.74178e+07
          2.68638e+07 2.63068e+07 2.57496e+07 2.51957e+07 2.46504e+07 2.41205e+07 2.36149e+07 2.31452e+07 2.27226e+07 2.23551e+07 2.20277e+07 2.2028e+07
          2.23779e+07 2.27748e+07 2.32286e+07 2.37271e+07 2.42574e+07 2.48082e+07 2.53706e+07 2.59383e+07 2.65068e+07 2.70728e+07 2.76343e+07 2.81901e+07
          2.87424e+07 2.92945e+07 2.98468e+07 3.03992e+07 3.09517e+07 3.15043e+07 3.20571e+07 3.26099e+07 3.31628e+07 3.37158e+07 3.42689e+07 3.48221e+07
          3.53753e+07 3.59286e+07 3.64819e+07 3.70353e+07 3.75887e+07 3.81422e+07 3.86957e+07 3.92492e+07 3.98027e+07 4.03562e+07 4.09098e+07 4.14633e+07
          4.20169e+07 4.25704e+07 4.31239e+07 4.36774e+07 4.42309e+07 4.47843e+07 4.53378e+07 4.58914e+07 4.6447e+07 4.70136e+07 4.76332e+07 4.84336e+07
          4.95e+07 4.95e+07 4.84258e+07 4.76556e+07 4.70461e+07 4.64886e+07 4.59414e+07 4.53959e+07 4.48506e+07 4.43053e+07 4.376e+07 4.32146e+07
          4.26693e+07 4.21239e+07 4.15785e+07 4.10331e+07 4.04877e+07 3.99423e+07 3.93969e+07 3.88515e+07 3.83062e+07 3.77609e+07 3.72156e+07 3.66703e+07
          3.61251e+07 3.558e+07 3.50349e+07 3.44899e+07 3.39449e+07 3.34e+07 3.28552e+07 3.23105e+07 3.17659e+07 3.12214e+07 3.06769e+07 3.01326e+07
          2.95884e+07 2.90444e+07 2.85004e+07 2.79555e+07 2.74062e+07 2.68521e+07 2.62951e+07 2.57378e+07 2.51839e+07 2.46386e+07 2.41086e+07 2.3603e+07
          2.31331e+07 2.27104e+07 2.23433e+07 2.2014e+07 2.20142e+07 2.23661e+07 2.27626e+07 2.32165e+07 2.37151e+07 2.42455e+07 2.47963e+07 2.53588e+07
          2.59265e+07 2.6495e+07 2.70611e+07 2.76226e+07 2.81785e+07 2.87307e+07 2.92829e+07 2.98352e+07 3.03876e+07 3.09401e+07 3.14927e+07 3.20454e+07
          3.25983e+07 3.31512e+07 3.37042e+07 3.42573e+07 3.48104e+07 3.53636e+07 3.59169e+07 3.64703e+07 3.70236e+07 3.75771e+07 3.81305e+07 3.8684e+07
          3.92375e+07 3.97911e+07 4.03446e+07 4.08981e+07 4.14517e+07 4.20052e+07 4.25588e+07 4.31123e+07 4.36658e+07 4.42192e+07 4.47727e+07 4.53261e+07
          4.58798e+07 4.64354e+07 4.70019e+07 4.76229e+07 4.84098e+07 4.95e+07 4.94636e+07 4.84109e+07 4.76443e+07 4.70346e+07 4.6477e+07 4.59297e+07
          4.53842e+07 4.48389e+07 4.42936e+07 4.37483e+07 4.3203e+07 4.26576e+07 4.21122e+07 4.15668e+07 4.10214e+07 4.0476e+07 3.99306e+07 3.93853e+07
          3.88399e+07 3.82945e+07 3.77492e+07 3.72039e+07 3.66587e+07 3.61135e+07 3.55683e+07 3.50233e+07 3.44782e+07 3.39333e+07 3.33884e+07 3.28436e+07
          3.22989e+07 3.17542e+07 3.12097e+07 3.06653e+07 3.0121e+07 2.95768e+07 2.90327e+07 2.84888e+07 2.79438e+07 2.73945e+07 2.68404e+07 2.62834e+07
          2.5726e+07 2.51721e+07 2.46267e+07 2.40966e+07 2.35909e+07 2.3121e+07 2.26982e+07 2.23315e+07 2.2e+07 2.2e+07 2.23543e+07 2.27503e+07
          2.32044e+07 2.37031e+07 2.42336e+07 2.47844e+07 2.53469e+07 2.59147e+07 2.64833e+07 2.70494e+07 2.76109e+07 2.81669e+07 2.87191e+07 2.92713e+07
          2.98235e+07 3.03759e+07 3.09285e+07 3.14811e+07 3.20338e+07 3.25866e+07 3.31395e+07 3.36925e+07 3.42456e+07 3.47988e+07 3.5352e+07 3.59053e+07
          3.64586e+07 3.7012e+07 3.75654e+07 3.81189e+07 3.86724e+07 3.92259e+07 3.97794e+07 4.03329e+07 4.08865e+07 4.144e+07 4.19936e+07 4.25471e+07
          4.31006e+07 4.36541e+07 4.42076e+07 4.4761e+07 4.53145e+07 4.58681e+07 4.64237e+07 4.69904e+07 4.76116e+07 4.83946e+07 4.94635e+07 4.94295e+07
          4.83981e+07 4.76329e+07 4.70231e+07 4.64654e+07 4.59181e+07 4.53726e+07 4.48273e+07 4.4282e+07 4.37367e+07 4.31913e+07 4.2646e+07 4.21006e+07
          4.15552e+07 4.10098e+07 4.04644e+07 3.9919e+07 3.93736e+07 3.88282e+07 3.82829e+07 3.77376e+07 3.71923e+07 3.6647e+07 3.61018e+07 3.55567e+07
          3.50116e+07 3.44666e+07 3.39216e+07 3.33767e+07 3.28319e+07 3.22872e+07 3.17426e+07 3.11981e+07 3.06537e+07 3.01094e+07 2.95652e+07 2.90211e+07
          2.84772e+07 2.79322e+07 2.73828e+07 2.68287e+07 2.62716e+07 2.57142e+07 2.51602e+07 2.46148e+07 2.40846e+07 2.35788e+07 2.31088e+07 2.26863e+07
          2.23173e+07 2.2e+07 2.2e+07 2.23401e+07 2.27384e+07 2.31922e+07 2.3691e+07 2.42216e+07 2.47726e+07 2.53351e+07 2.5903e+07 2.64716e+07
          2.70377e+07 2.75993e+07 2.81552e+07 2.87075e+07 2.92596e+07 2.98119e+07 3.03643e+07 3.09168e+07 3.14694e+07 3.20222e+07 3.2575e+07 3.31279e+07
          3.36809e+07 3.4234e+07 3.47871e+07 3.53404e+07 3.58936e+07 3.6447e+07 3.70003e+07 3.75538e+07 3.81072e+07 3.86607e+07 3.92142e+07 3.97678e+07
          4.03213e+07 4.08748e+07 4.14284e+07 4.19819e+07 4.25355e+07 4.3089e+07 4.36425e+07 4.41959e+07 4.47494e+07 4.53028e+07 4.58565e+07 4.64121e+07
          4.69789e+07 4.76002e+07 4.83815e+07 4.94294e+07 4.93981e+07 4.83868e+07 4.76213e+07 4.70115e+07 4.64537e+07 4.59064e+07 4.53609e+07 4.48156e+07
          4.42703e+07 4.3725e+07 4.31797e+07 4.26343e+07 4.20889e+07 4.15435e+07 4.09981e+07 4.04527e+07 3.99073e+07 3.9362e+07 3.88166e+07 3.82712e+07
          3.77259e+07 3.71806e+07 3.66354e+07 3.60902e+07 3.55451e+07 3.5e+07 3.44549e+07 3.391e+07 3.33651e+07 3.28203e+07 3.22756e+07 3.1731e+07
          3.11865e+07 3.0642e+07 3.00977e+07 2.95536e+07 2.90095e+07 2.84656e+07 2.79205e+07 2.73711e+07 2.6817e+07 2.62598e+07 2.57024e+07 2.51484e+07
          2.46028e+07 2.40726e+07 2.35667e+07 2.30965e+07 2.26743e+07 2.23031e+07 2.2e+07 2.2e+07 2.23257e+07 2.27264e+07 2.31799e+07 2.36789e+07
          2.42096e+07 2.47606e+07 2.53233e+07 2.58912e+07 2.64598e+07 2.7026e+07 2.75876e+07 2.81436e+07 2.86959e+07 2.9248e+07 2.98003e+07 3.03527e+07
          3.09052e+07 3.14578e+07 3.20105e+07 3.25634e+07 3.31163e+07 3.36693e+07 3.42224e+07 3.47755e+07 3.53287e+07 3.5882e+07 3.64353e+07 3.69887e+07
          3.75421e+07 3.80956e+07 3.86491e+07 3.92026e+07 3.97561e+07 4.03096e+07 4.08632e+07 4.14167e+07 4.19703e+07 4.25238e+07 4.30773e+07 4.36308e+07
          4.41843e+07 4.47377e+07 4.52911e+07 4.58448e+07 4.64005e+07 4.69674e+07 4.75887e+07 4.83701e+07 4.93979e+07 4.93693e+07 4.83764e+07 4.76096e+07
          4.7e+07 4.64421e+07 4.58948e+07 4.53492e+07 4.4804e+07 4.42587e+07 4.37134e+07 4.3168e+07 4.26227e+07 4.20773e+07 4.15319e+07 4.09865e+07
          4.04411e+07 3.98957e+07 3.93503e+07 3.88049e+07 3.82596e+07 3.77143e+07 3.7169e+07 3.66238e+07 3.60786e+07 3.55334e+07 3.49883e+07 3.44433e+07
          3.38984e+07 3.33535e+07 3.28087e+07 3.2264e+07 3.17193e+07 3.11748e+07 3.06304e+07 3.00861e+07 2.95419e+07 2.89979e+07 2.84539e+07 2.79089e+07
          2.73595e+07 2.68053e+07 2.62481e+07 2.56906e+07 2.51365e+07 2.45909e+07 2.40605e+07 2.35545e+07 2.30841e+07 2.26623e+07 2.22887e+07 2.2e+07
          2.2e+07 2.23112e+07 2.27144e+07 2.31676e+07 2.36668e+07 2.41976e+07 2.47487e+07 2.53114e+07 2.58794e+07 2.64481e+07 2.70143e+07 2.75759e+07
          2.8132e+07 2.86842e+07 2.92364e+07 2.97886e+07 3.0341e+07 3.08936e+07 3.14462e+07 3.19989e+07 3.25517e+07 3.31046e+07 3.36576e+07 3.42107e+07
          3.47639e+07 3.53171e+07 3.58704e+07 3.64237e+07 3.69771e+07 3.75305e+07 3.80839e+07 3.86374e+07 3.91909e+07 3.97445e+07 4.0298e+07 4.08515e+07
          4.14051e+07 4.19586e+07 4.25122e+07 4.30657e+07 4.36192e+07 4.41726e+07 4.4726e+07 4.52795e+07 4.58332e+07 4.63888e+07 4.69558e+07 4.7577e+07
          4.83596e+07 4.93691e+07 4.93433e+07 4.83668e+07 4.75977e+07 4.69884e+07 4.64304e+07 4.58831e+07 4.53376e+07 4.47923e+07 4.4247e+07 4.37017e+07
          4.31564e+07 4.2611e+07 4.20656e+07 4.15202e+07 4.09748e+07 4.04294e+07 3.9884e+07 3.93387e+07 3.87933e+07 3.82479e+07 3.77026e+07 3.71574e+07
          3.66121e+07 3.60669e+07 3.55218e+07 3.49767e+07 3.44317e+07 3.38867e+07 3.33418e+07 3.2797e+07 3.22523e+07 3.17077e+07 3.11632e+07 3.06188e+07
          3.00745e+07 2.95303e+07 2.89862e+07 2.84423e+07 2.78973e+07 2.73478e+07 2.67936e+07 2.62363e+07 2.56788e+07 2.51246e+07 2.45789e+07 2.40485e+07
          2.35423e+07 2.30718e+07 2.26498e+07 2.22767e+07 2.2e+07 2.2e+07 2.22983e+07 2.2702e+07 2.31552e+07 2.36546e+07 2.41856e+07 2.47368e+07
          2.52996e+07 2.58676e+07 2.64363e+07 2.70026e+07 2.75643e+07 2.81203e+07 2.86726e+07 2.92247e+07 2.9777e+07 3.03294e+07 3.08819e+07 3.14345e+07
          3.19873e+07 3.25401e+07 3.3093e+07 3.3646e+07 3.41991e+07 3.47522e+07 3.53054e+07 3.58587e+07 3.6412e+07 3.69654e+07 3.75188e+07 3.80723e+07
          3.86258e+07 3.91793e+07 3.97328e+07 4.02863e+07 4.08399e+07 4.13934e+07 4.1947e+07 4.25005e+07 4.3054e+07 4.36075e+07 4.4161e+07 4.47144e+07
          4.52678e+07 4.58215e+07 4.63771e+07 4.69442e+07 4.75651e+07 4.835e+07 4.93431e+07
        </DataArray>
        <DataArray type="Float32" Name="pressure_oil" NumberOfComponents="1" format="ascii">
          4.95e+07 4.8549e+07 4.95e+07 4.85251e+07 4.7723e+07 4.77017e+07 4.71034e+07 4.70922e+07 4.65468e+07 4.65351e+07 4.59996e+07 4.5988e+07
          4.54542e+07 4.54425e+07 4.49089e+07 4.48972e+07 4.43636e+07 4.43519e+07 4.38183e+07 4.38066e+07 4.32729e+07 4.32613e+07 4.27275e+07 4.27159e+07
          4.21822e+07 4.21705e+07 4.16368e+07 4.16251e+07 4.10913e+07 4.10797e+07 4.05459e+07 4.05343e+07 4.00005e+07 3.99889e+07 3.94551e+07 3.94435e+07
          3.89098e+07 3.88981e+07 3.83644e+07 3.83528e+07 3.78191e+07 3.78074e+07 3.72738e+07 3.72622e+07 3.67285e+07 3.67169e+07 3.61833e+07 3.61717e+07
          3.56382e+07 3.56265e+07 3.50931e+07 3.50815e+07 3.45481e+07 3.45364e+07 3.40031e+07 3.39915e+07 3.34582e+07 3.34466e+07 3.29134e+07 3.29018e+07
          3.23687e+07 3.2357e+07 3.18241e+07 3.18124e+07 3.12795e+07 3.12679e+07 3.07351e+07 3.07235e+07 3.01908e+07 3.01792e+07 2.96466e+07 2.9635e+07
          2.91025e+07 2.90909e+07 2.85586e+07 2.8547e+07 2.80137e+07 2.8002e+07 2.74645e+07 2.74528e+07 2.69106e+07 2.68989e+07 2.63537e+07 2.6342e+07
          2.57966e+07 2.57848e+07 2.52428e+07 2.52311e+07 2.46977e+07 2.46859e+07 2.41679e+07 2.41561e+07 2.36625e+07 2.36507e+07 2.31928e+07 2.3181e+07
          2.27705e+07 2.27587e+07 2.24023e+07 2.23904e+07 2.20783e+07 2.20663e+07 2.2079e+07 2.20669e+07 2.24251e+07 2.24133e+07 2.28227e+07 2.28108e+07
          2.32762e+07 2.32644e+07 2.37746e+07 2.37628e+07 2.43048e+07 2.4293e+07 2.48554e+07 2.48436e+07 2.54176e+07 2.54059e+07 2.59852e+07 2.59735e+07
          2.65536e+07 2.65419e+07 2.71195e+07 2.71079e+07 2.76809e+07 2.76692e+07 2.82367e+07 2.8225e+07 2.87889e+07 2.87773e+07 2.9341e+07 2.93294e+07
          2.98933e+07 2.98817e+07 3.04457e+07 3.04341e+07 3.09982e+07 3.09866e+07 3.15509e+07 3.15392e+07 3.21036e+07 3.2092e+07 3.26564e+07 3.26448e+07
          3.32094e+07 3.31977e+07 3.37624e+07 3.37507e+07 3.43155e+07 3.43038e+07 3.48686e+07 3.4857e+07 3.54218e+07 3.54102e+07 3.59751e+07 3.59635e+07
          3.65285e+07 3.65168e+07 3.70819e+07 3.70702e+07 3.76353e+07 3.76236e+07 3.81887e+07 3.81771e+07 3.87422e+07 3.87306e+07 3.92958e+07 3.92841e+07
          3.98493e+07 3.98376e+07 4.04028e+07 4.03912e+07 4.09564e+07 4.09448e+07 4.151e+07 4.14983e+07 4.20635e+07 4.20519e+07 4.2617e+07 4.26054e+07
          4.31706e+07 4.31589e+07 4.37241e+07 4.37124e+07 4.42775e+07 4.42659e+07 4.4831e+07 4.48193e+07 4.53844e+07 4.53727e+07 4.5938e+07 4.59264e+07
          4.64935e+07 4.64818e+07 4.70592e+07 4.70479e+07 4.76911e+07 4.76698e+07 4.85332e+07 4.85094e+07 4.95e+07 4.95e+07 4.95e+07 4.85e+07
          4.76873e+07 4.70811e+07 4.65234e+07 4.59763e+07 4.54308e+07 4.48856e+07 4.43403e+07 4.3795e+07 4.32496e+07 4.27042e+07 4.21589e+07 4.16135e+07
          4.1068e+07 4.05226e+07 3.99772e+07 3.94318e+07 3.88865e+07 3.83411e+07 3.77958e+07 3.72505e+07 3.67053e+07 3.61601e+07 3.56149e+07 3.50698e+07
          3.45248e+07 3.39798e+07 3.34349e+07 3.28901e+07 3.23454e+07 3.18008e+07 3.12563e+07 3.07118e+07 3.01675e+07 2.96233e+07 2.90793e+07 2.85353e+07
          2.79904e+07 2.74412e+07 2.68872e+07 2.63303e+07 2.57731e+07 2.52193e+07 2.46741e+07 2.41443e+07 2.36388e+07 2.31691e+07 2.27467e+07 2.23786e+07
          2.20538e+07 2.20544e+07 2.24015e+07 2.27989e+07 2.32525e+07 2.37509e+07 2.42812e+07 2.48318e+07 2.53941e+07 2.59618e+07 2.65302e+07 2.70962e+07
          2.76576e+07 2.82134e+07 2.87656e+07 2.93178e+07 2.98701e+07 3.04225e+07 3.0975e+07 3.15276e+07 3.20803e+07 3.26332e+07 3.31861e+07 3.37391e+07
          3.42922e+07 3.48453e+07 3.53986e+07 3.59518e+07 3.65052e+07 3.70586e+07 3.7612e+07 3.81655e+07 3.87189e+07 3.92725e+07 3.9826e+07 4.03795e+07
          4.09331e+07 4.14867e+07 4.20402e+07 4.25937e+07 4.31473e+07 4.37007e+07 4.42542e+07 4.48077e+07 4.53611e+07 4.59148e+07 4.64701e+07 4.70368e+07
          4.76548e+07 4.84843e+07 4.95e+07 4.95e+07 4.84743e+07 4.76763e+07 4.70694e+07 4.65118e+07 4.59647e+07 4.54192e+07 4.48739e+07 4.43286e+07
          4.37833e+07 4.3238e+07 4.26926e+07 4.21472e+07 4.16018e+07 4.10564e+07 4.0511e+07 3.99656e+07 3.94202e+07 3.88748e+07 3.83295e+07 3.77842e+07
          3.72389e+07 3.66936e+07 3.61484e+07 3.56033e+07 3.50582e+07 3.45131e+07 3.39682e+07 3.34233e+07 3.28785e+07 3.23338e+07 3.17892e+07 3.12446e+07
          3.07002e+07 3.01559e+07 2.96117e+07 2.90676e+07 2.85237e+07 2.79788e+07 2.74295e+07 2.68755e+07 2.63186e+07 2.57613e+07 2.52075e+07 2.46623e+07
          2.41324e+07 2.36269e+07 2.31572e+07 2.27347e+07 2.23668e+07 2.2041e+07 2.20415e+07 2.23897e+07 2.27869e+07 2.32405e+07 2.3739e+07 2.42693e+07
          2.482e+07 2.53824e+07 2.595e+07 2.65185e+07 2.70845e+07 2.76459e+07 2.82018e+07 2.8754e+07 2.93062e+07 2.98584e+07 3.04108e+07 3.09634e+07
          3.1516e+07 3.20687e+07 3.26215e+07 3.31745e+07 3.37275e+07 3.42805e+07 3.48337e+07 3.53869e+07 3.59402e+07 3.64935e+07 3.70469e+07 3.76003e+07
          3.81538e+07 3.87073e+07 3.92608e+07 3.98144e+07 4.03679e+07 4.09214e+07 4.1475e+07 4.20285e+07 4.25821e+07 4.31356e+07 4.36891e+07 4.42426e+07
          4.4796e+07 4.53494e+07 4.59031e+07 4.64585e+07 4.70252e+07 4.76437e+07 4.84587e+07 4.95e+07 4.95e+07 4.84493e+07 4.76659e+07 4.70578e+07
          4.65002e+07 4.5953e+07 4.54075e+07 4.48622e+07 4.4317e+07 4.37716e+07 4.32263e+07 4.26809e+07 4.21355e+07 4.15901e+07 4.10447e+07 4.04993e+07
          3.99539e+07 3.94085e+07 3.88632e+07 3.83178e+07 3.77725e+07 3.72272e+07 3.6682e+07 3.61368e+07 3.55916e+07 3.50465e+07 3.45015e+07 3.39565e+07
          3.34117e+07 3.28669e+07 3.23221e+07 3.17775e+07 3.1233e+07 3.06886e+07 3.01443e+07 2.96001e+07 2.9056e+07 2.85121e+07 2.79671e+07 2.74178e+07
          2.68638e+07 2.63068e+07 2.57496e+07 2.51957e+07 2.46504e+07 2.41205e+07 2.36149e+07 2.31452e+07 2.27226e+07 2.23551e+07 2.20277e+07 2.2028e+07
          2.23779e+07 2.27748e+07 2.32286e+07 2.37271e+07 2.42574e+07 2.48082e+07 2.53706e+07 2.59383e+07 2.65068e+07 2.70728e+07 2.76343e+07 2.81901e+07
          2.87424e+07 2.92945e+07 2.98468e+07 3.03992e+07 3.09517e+07 3.15043e+07 3.20571e+07 3.26099e+07 3.31628e+07 3.37158e+07 3.42689e+07 3.48221e+07
          3.53753e+07 3.59286e+07 3.64819e+07 3.70353e+07 3.75887e+07 3.81422e+07 3.86957e+07 3.92492e+07 3.98027e+07 4.03562e+07 4.09098e+07 4.14633e+07
          4.20169e+07 4.25704e+07 4.31239e+07 4.36774e+07 4.42309e+07 4.47843e+07 4.53378e+07 4.58914e+07 4.6447e+07 4.70136e+07 4.76332e+07 4.84336e+07
          4.95e+07 4.95e+07 4.84258e+07 4.76556e+07 4.70461e+07 4.64886e+07 4.59414e+07 4.53959e+07 4.48506e+07 4.43053e+07 4.376e+07 4.32146e+07
          4.26693e+07 4.21239e+07 4.15785e+07 4.10331e+07 4.04877e+07 3.99423e+07 3.93969e+07 3.88515e+07 3.83062e+07 3.77609e+07 3.72156e+07 3.66703e+07
          3.61251e+07 3.558e+07 3.50349e+07 3.44899e+07 3.39449e+07 3.34e+07 3.28552e+07 3.23105e+07 3.17659e+07 3.12214e+07 3.06769e+07 3.01326e+07
          2.95884e+07 2.90444e+07 2.85004e+07 2.79555e+07 2.74062e+07 2.68521e+07 2.62951e+07 2.57378e+07 2.51839e+07 2.46386e+07 2.41086e+07 2.3603e+07
          2.31331e+07 2.27104e+07 2.23433e+07 2.2014e+07 2.20142e+07 2.23661e+07 2.27626e+07 2.32165e+07 2.37151e+07 2.42455e+07 2.47963e+07 2.53588e+07
          2.59265e+07 2.6495e+07 2.70611e+07 2.76226e+07 2.81785e+07 2.87307e+07 2.92829e+07 2.98352e+07 3.03876e+07 3.09401e+07 3.14927e+07 3.20454e+07
          3.25983e+07 3.31512e+07 3.37042e+07 3.42573e+07 3.48104e+07 3.53636e+07 3.59169e+07 3.64703e+07 3.70236e+07 3.75771e+07 3.81305e+07 3.8684e+07
          3.92375e+07 3.97911e+07 4.03446e+07 4.08981e+07 4.14517e+07 4.20052e+07 4.25588e+07 4.31123e+07 4.36658e+07 4.42192e+07 4.47727e+07 4.53261e+07
          4.58798e+07 4.64354e+07 4.70019e+07 4.76229e+07 4.84098e+07 4.95e+07 4.94636e+07 4.84109e+07 4.76443e+07 4.70346e+07 4.6477e+07 4.59297e+07
          4.53842e+07 4.48389e+07 4.42936e+07 4.37483e+07 4.3203e+07 4.26576e+07 4.21122e+07 4.15668e+07 4.10214e+07 4.0476e+07 3.99306e+07 3.93853e+07
          3.88399e+07 3.82945e+07 3.77492e+07 3.72039e+07 3.66587e+07 3.61135e+07 3.55683e+07 3.50233e+07 3.44782e+07 3.39333e+07 3.33884e+07 3.28436e+07
          3.22989e+07 3.17542e+07 3.12097e+07 3.06653e+07 3.0121e+07 2.95768e+07 2.90327e+07 2.84888e+07 2.79438e+07 2.73945e+07 2.68404e+07 2.62834e+07
          2.5726e+07 2.51721e+07 2.46267e+07 2.40966e+07 2.35909e+07 2.3121e+07 2.26982e+07 2.23315e+07 2.2e+07 2.2e+07 2.23543e+07 2.27503e+07
          2.32044e+07 2.37031e+07 2.42336e+07 2.47844e+07 2.53469e+07 2.59147e+07 2.64833e+07 2.70494e+07 2.76109e+07 2.81669e+07 2.87191e+07 2.92713e+07
          2.98235e+07 3.03759e+07 3.09285e+07 3.14811e+07 3.20338e+07 3.25866e+07 3.31395e+07 3.36925e+07 3.42456e+07 3.47988e+07 3.5352e+07 3.59053e+07
          3.64586e+07 3.7012e+07 3.75654e+07 3.81189e+07 3.86724e+07 3.92259e+07 3.97794e+07 4.03329e+07 4.08865e+07 4.144e+07 4.19936e+07 4.25471e+07
          4.31006e+07 4.36541e+07 4.42076e+07 4.4761e+07 4.53145e+07 4.58681e+07 4.64237e+07 4.69904e+07 4.76116e+07 4.83946e+07 4.94635e+07 4.94295e+07
          4.83981e+07 4.76329e+07 4.70231e+07 4.64654e+07 4.59181e+07 4.53726e+07 4.48273e+07 4.4282e+07 4.37367e+07 4.31913e+07 4.2646e+07 4.21006e+07
          4.15552e+07 4.10098e+07 4.04644e+07 3.9919e+07 3.93736e+07 3.88282e+07 3.82829e+07 3.77376e+07 3.71923e+07 3.6647e+07 3.61018e+07 3.55567e+07
          3.50116e+07 3.44666e+07 3.39216e+07 3.33767e+07 3.28319e+07 3.22872e+07 3.17426e+07 3.11981e+07 3.06537e+07 3.01094e+07 2.95652e+07 2.90211e+07
          2.84772e+07 2.79322e+07 2.73828e+07 2.68287e+07 2.62716e+07 2.57142e+07 2.51602e+07 2.46148e+07 2.40846e+07 2.35788e+07 2.31088e+07 2.26863e+07
          2.23173e+07 2.2e+07 2.2e+07 2.23401e+07 2.27384e+07 2.31922e+07 2.3691e+07 2.42216e+07 2.47726e+07 2.53351e+07 2.5903e+07 2.64716e+07
          2.70377e+07 2.75993e+07 2.81552e+07 2.87075e+07 2.92596e+07 2.98119e+07 3.03643e+07 3.09168e+07 3.14694e+07 3.20222e+07 3.2575e+07 3.31279e+07
          3.36809e+07 3.4234e+07 3.47871e+07 3.53404e+07 3.58936e+07 3.6447e+07 3.70003e+07 3.75538e+07 3.81072e+07 3.86607e+07 3.92142e+07 3.97678e+07
          4.03213e+07 4.08748e+07 4.14284e+07 4.19819e+07 4.25355e+07 4.3089e+07 4.36425e+07 4.41959e+07 4.47494e+07 4.53028e+07 4.58565e+07 4.64121e+07
          4.69789e+07 4.76002e+07 4.83815e+07 4.94294e+07 4.93981e+07 4.83868e+07 4.76213e+07 4.70115e+07 4.64537e+07 4.59064e+07 4.53609e+07 4.48156e+07
          4.42703e+07 4.3725e+07 4.31797e+07 4.26343e+07 4.20889e+07 4.15435e+07 4.09981e+07 4.04527e+07 3.99073e+07 3.9362e+07 3.88166e+07 3.82712e+07
          3.77259e+07 3.71806e+07 3.66354e+07 3.60902e+07 3.55451e+07 3.5e+07 3.44549e+07 3.391e+07 3.33651e+07 3.28203e+07 3.22756e+07 3.1731e+07
          3.11865e+07 3.0642e+07 3.00977e+07 2.95536e+07 2.90095e+07 2.84656e+07 2.79205e+07 2.73711e+07 2.6817e+07 2.62598e+07 2.57024e+07 2.51484e+07
          2.46028e+07 2.40726e+07 2.35667e+07 2.30965e+07 2.26743e+07 2.23031e+07 2.2e+07 2.2e+07 2.23257e+07 2.27264e+07 2.31799e+07 2.36789e+07
          2.42096e+07 2.47606e+07 2.53233e+07 2.58912e+07 2.64598e+07 2.7026e+07 2.75876e+07 2.81436e+07 2.86959e+07 2.9248e+07 2.98003e+07 3.03527e+07
          3.09052e+07 3.14578e+07 3.20105e+07 3.25634e+07 3.31163e+07 3.36693e+07 3.42224e+07 3.47755e+07 3.53287e+07 3.5882e+07 3.64353e+07 3.69887e+07
          3.75421e+07 3.80956e+07 3.86491e+07 3.92026e+07 3.97561e+07 4.03096e+07 4.08632e+07 4.14167e+07 4.19703e+07 4.25238e+07 4.30773e+07 4.36308e+07
          4.41843e+07 4.47377e+07 4.52911e+07 4.58448e+07 4.64005e+07 4.69674e+07 4.75887e+07 4.83701e+07 4.93979e+07 4.93693e+07 4.83764e+07 4.76096e+07
          4.7e+07 4.64421e+07 4.58948e+07 4.53492e+07 4.4804e+07 4.42587e+07 4.37134e+07 4.3168e+07 4.26227e+07 4.20773e+07 4.15319e+07 4.09865e+07
          4.04411e+07 3.98957e+07 3.93503e+07 3.88049e+07 3.82596e+07 3.77143e+07 3.7169e+07 3.66238e+07 3.60786e+07 3.55334e+07 3.49883e+07 3.44433e+07
          3.38984e+07 3.33535e+07 3.28087e+07 3.2264e+07 3.17193e+07 3.11748e+07 3.06304e+07 3.00861e+07 2.95419e+07 2.89979e+07 2.84539e+07 2.79089e+07
          2.73595e+07 2.68053e+07 2.62481e+07 2.56906e+07 2.51365e+07 2.45909e+07 2.40605e+07 2.35545e+07 2.30841e+07 2.26623e+07 2.22887e+07 2.2e+07
          2.2e+07 2.23112e+07 2.27144e+07 2.31676e+07 2.36668e+07 2.41976e+07 2.47487e+07 2.53114e+07 2.58794e+07 2.64481e+07 2.70143e+07 2.75759e+07
          2.8132e+07 2.86842e+07 2.92364e+07 2.97886e+07 3.0341e+07 3.08936e+07 3.14462e+07 3.19989e+07 3.25517e+07 3.31046e+07 3.36576e+07 3.42107e+07
          3.47639e+07 3.53171e+07 3.58704e+07 3.64237e+07 3.69771e+07 3.75305e+07 3.80839e+07 3.86374e+07 3.91909e+07 3.97445e+07 4.0298e+07 4.08515e+07
          4.14051e+07 4.19586e+07 4.25122e+07 4.30657e+07 4.36192e+07 4.41726e+07 4.4726e+07 4.52795e+07 4.58332e+07 4.63888e+07 4.69558e+07 4.7577e+07
          4.83596e+07 4.93691e+07 4.93433e+07 4.83668e+07 4.75977e+07 4.69884e+07 4.64304e+07 4.58831e+07 4.53376e+07 4.47923e+07 4.4247e+07 4.37017e+07
          4.31564e+07 4.2611e+07 4.20656e+07 4.15202e+07 4.09748e+07 4.04294e+07 3.9884e+07 3.93387e+07 3.87933e+07 3.82479e+07 3.77026e+07 3.71574e+07
          3.66121e+07 3.60669e+07 3.55218e+07 3.49767e+07 3.44317e+07 3.38867e+07 3.33418e+07 3.2797e+07 3.22523e+07 3.17077e+07 3.11632e+07 3.06188e+07
          3.00745e+07 2.95303e+07 2.89862e+07 2.84423e+07 2.78973e+07 2.73478e+07 2.67936e+07 2.62363e+07 2.56788e+07 2.51246e+07 2.45789e+07 2.40485e+07
          2.35423e+07 2.30718e+07 2.26498e+07 2.22767e+07 2.2e+07 2.2e+07 2.22983e+07 2.2702e+07 2.31552e+07 2.36546e+07 2.41856e+07 2.47368e+07
          2.52996e+07 2.58676e+07 2.64363e+07 2.70026e+07 2.75643e+07 2.81203e+07 2.86726e+07 2.92247e+07 2.9777e+07 3.03294e+07 3.08819e+07 3.14345e+07
          3.19873e+07 3.25401e+07 3.3093e+07 3.3646e+07 3.41991e+07 3.47522e+07 3.53054e+07 3.58587e+07 3.6412e+07 3.69654e+07 3.75188e+07 3.80723e+07
          3.86258e+07 3.91793e+07 3.97328e+07 4.02863e+07 4.08399e+07 4.13934e+07 4.1947e+07 4.25005e+07 4.3054e+07 4.36075e+07 4.4161e+07 4.47144e+07
          4.52678e+07 4.58215e+07 4.63771e+07 4.69442e+07 4.75651e+07 4.835e+07 4.93431e+07
        </DataArray>
        <DataArray type="Float32" Name="pressure_gas" NumberOfComponents="1" format="ascii">
          4.95e+07 4.8549e+07 4.95e+07 4.85251e+07 4.7723e+07 4.77017e+07 4.71034e+07 4.70922e+07 4.65468e+07 4.65351e+07 4.59996e+07 4.5988e+07
          4.54542e+07 4.54425e+07 4.49089e+07 4.48972e+07 4.43636e+07 4.43519e+07 4.38183e+07 4.38066e+07 4.32729e+07 4.32613e+07 4.27275e+07 4.27159e+07
          4.21822e+07 4.21705e+07 4.16368e+07 4.16251e+07 4.10913e+07 4.10797e+07 4.05459e+07 4.05343e+07 4.00005e+07 3.99889e+07 3.94551e+07 3.94435e+07
          3.89098e+07 3.88981e+07 3.83644e+07 3.83528e+07 3.78191e+07 3.78074e+07 3.72738e+07 3.72622e+07 3.67285e+07 3.67169e+07 3.61833e+07 3.61717e+07
          3.56382e+07 3.56265e+07 3.50931e+07 3.50815e+07 3.45481e+07 3.45364e+07 3.40031e+07 3.39915e+07 3.34582e+07 3.34466e+07 3.29134e+07 3.29018e+07
          3.23687e+07 3.2357e+07 3.18241e+07 3.18124e+07 3.12795e+07 3.12679e+07 3.07351e+07 3.07235e+07 3.01908e+07 3.01792e+07 2.96466e+07 2.9635e+07
          2.91025e+07 2.90909e+07 2.85586e+07 2.8547e+07 2.80137e+07 2.8002e+07 2.74645e+07 2.74528e+07 2.69106e+07 2.68989e+07 2.63537e+07 2.6342e+07
          2.57966e+07 2.57848e+07 2.52428e+07 2.52311e+07 2.46977e+07 2.46859e+07 2.41679e+07 2.41561e+07 2.36625e+07 2.36507e+07 2.31928e+07 2.3181e+07