<?xml version="1.0"?>
<VTKFile type="UnstructuredGrid" version="0.1" byte_order="LittleEndian">
  <UnstructuredGrid>
    <Piece NumberOfCells="1000" NumberOfPoints="1111">
      <PointData Scalars="pressure_o">
        <DataArray type="Float32" Name="pressure_o" NumberOfComponents="1" format="ascii">
          3e+07 2.75749e+07 3e+07 2.75597e+07 2.5446e+07 2.54334e+07 2.37182e+07 2.37052e+07 2.24223e+07 2.24093e+07 2.15192e+07 2.15062e+07
          2.09303e+07 2.09174e+07 2.05655e+07 2.05525e+07 2.03483e+07 2.03353e+07 2.02237e+07 2.02107e+07 2.01584e+07 2.01454e+07 2.01288e+07 2.01158e+07
          2.01247e+07 2.01117e+07 2.01244e+07 2.01114e+07 2.01244e+07 2.01114e+07 2.01244e+07 2.01114e+07 2.01244e+07 2.01114e+07 2.01244e+07 2.01114e+07
          2.01244e+07 2.01114e+07 2.01244e+07 2.01114e+07 2.01244e+07 2.01114e+07 2.01244e+07 2.01114e+07 2.01244e+07 2.01114e+07 2.01244e+07 2.01114e+07
          2.01244e+07 2.01114e+07 2.01244e+07 2.01114e+07 2.01244e+07 2.01114e+07 2.01244e+07 2.01114e+07 2.01244e+07 2.01114e+07 2.01244e+07 2.01114e+07
          2.01244e+07 2.01114e+07 2.01244e+07 2.01114e+07 2.01244e+07 2.01114e+07 2.01244e+07 2.01114e+07 2.01244e+07 2.01114e+07 2.01244e+07 2.01114e+07
          2.01244e+07 2.01114e+07 2.01244e+07 2.01114e+07 2.01244e+07 2.01114e+07 2.01244e+07 2.01114e+07 2.01244e+07 2.01114e+07 2.01244e+07 2.01114e+07
          2.01244e+07 2.01114e+07 2.01244e+07 2.01114e+07 2.01243e+07 2.01114e+07 2.01242e+07 2.01113e+07 2.01238e+07 2.01108e+07 2.01193e+07 2.01064e+07
          2.00996e+07 2.00863e+07 1.97919e+07 1.97822e+07 1.34756e+07 1.34701e+07 1.97919e+07 1.97822e+07 2.00996e+07 2.00863e+07 2.01193e+07 2.01064e+07
          2.01238e+07 2.01108e+07 2.01242e+07 2.01113e+07 2.01243e+07 2.01114e+07 2.01244e+07 2.01114e+07 2.01244e+07 2.01114e+07 2.01244e+07 2.01114e+07
          2.01244e+07 2.01114e+07 2.01244e+07 2.01114e+07 2.01244e+07 2.01114e+07 2.01244e+07 2.01114e+07 2.01244e+07 2.01114e+07 2.01244e+07 2.01114e+07
          2.01244e+07 2.01114e+07 2.01244e+07 2.01114e+07 2.01244e+07 2.01114e+07 2.01244e+07 2.01114e+07 2.01244e+07 2.01114e+07 2.01244e+07 2.01114e+07
          2.01244e+07 2.01114e+07 2.01244e+07 2.01114e+07 2.01244e+07 2.01114e+07 2.01244e+07 2.01114e+07 2.01244e+07 2.01114e+07 2.01244e+07 2.01114e+07
          2.01244e+07 2.01114e+07 2.01244e+07 2.01114e+07 2.01244e+07 2.01114e+07 2.01244e+07 2.01114e+07 2.01244e+07 2.01114e+07 2.01244e+07 2.01114e+07
          2.01244e+07 2.01114e+07 2.01244e+07 2.01114e+07 2.01244e+07 2.01114e+07 2.01244e+07 2.01114e+07 2.01247e+07 2.01117e+07 2.01288e+07 2.01158e+07
          2.01584e+07 2.01454e+07 2.02237e+07 2.02107e+07 2.03483e+07 2.03353e+07 2.05655e+07 2.05525e+07 2.09303e+07 2.09174e+07 2.15192e+07 2.15062e+07
          2.24223e+07 2.24093e+07 2.37182e+07 2.37052e+07 2.5446e+07 2.54334e+07 2.75749e+07 2.75597e+07 3e+07 3e+07 3e+07 2.75444e+07
          2.54208e+07 2.36921e+07 2.23964e+07 2.14932e+07 2.09044e+07 2.05395e+07 2.03223e+07 2.01977e+07 2.01324e+07 2.01028e+07 2.00988e+07 2.00985e+07
          2.00984e+07 2.00984e+07 2.00984e+07 2.00984e+07 2.00984e+07 2.00984e+07 2.00984e+07 2.00984e+07 2.00984e+07 2.00984e+07 2.00984e+07 2.00984e+07
          2.00984e+07 2.00984e+07 2.00984e+07 2.00984e+07 2.00984e+07 2.00984e+07 2.00984e+07 2.00984e+07 2.00984e+07 2.00984e+07 2.00984e+07 2.00984e+07
          2.00984e+07 2.00984e+07 2.00984e+07 2.00984e+07 2.00984e+07 2.00984e+07 2.00984e+07 2.00983e+07 2.00978e+07 2.00936e+07 2.00726e+07 1.97774e+07
          1.34566e+07 1.97774e+07 2.00726e+07 2.00936e+07 2.00978e+07 2.00983e+07 2.00984e+07 2.00984e+07 2.00984e+07 2.00984e+07 2.00984e+07 2.00984e+07
          2.00984e+07 2.00984e+07 2.00984e+07 2.00984e+07 2.00984e+07 2.00984e+07 2.00984e+07 2.00984e+07 2.00984e+07 2.00984e+07 2.00984e+07 2.00984e+07
          2.00984e+07 2.00984e+07 2.00984e+07 2.00984e+07 2.00984e+07 2.00984e+07 2.00984e+07 2.00984e+07 2.00984e+07 2.00984e+07 2.00984e+07 2.00984e+07
          2.00984e+07 2.00985e+07 2.00988e+07 2.01028e+07 2.01324e+07 2.01977e+07 2.03223e+07 2.05395e+07 2.09044e+07 2.14932e+07 2.23964e+07 2.36921e+07
          2.54208e+07 2.75444e+07 3e+07 3e+07 2.75292e+07 2.54083e+07 2.36791e+07 2.23834e+07 2.14802e+07 2.08914e+07 2.05266e+07 2.03094e+07
          2.01848e+07 2.01195e+07 2.00898e+07 2.00858e+07 2.00855e+07 2.00854e+07 2.00854e+07 2.00854e+07 2.00854e+07 2.00854e+07 2.00854e+07 2.00854e+07
          2.00854e+07 2.00854e+07 2.00854e+07 2.00854e+07 2.00854e+07 2.00854e+07 2.00854e+07 2.00854e+07 2.00854e+07 2.00854e+07 2.00854e+07 2.00854e+07
          2.00854e+07 2.00854e+07 2.00854e+07 2.00854e+07 2.00854e+07 2.00854e+07 2.00854e+07 2.00854e+07 2.00854e+07 2.00854e+07 2.00854e+07 2.00854e+07
          2.00853e+07 2.00848e+07 2.00809e+07 2.00586e+07 1.97763e+07 1.34356e+07 1.97763e+07 2.00586e+07 2.00809e+07 2.00848e+07 2.00853e+07 2.00854e+07
          2.00854e+07 2.00854e+07 2.00854e+07 2.00854e+07 2.00854e+07 2.00854e+07 2.00854e+07 2.00854e+07 2.00854e+07 2.00854e+07 2.00854e+07 2.00854e+07
          2.00854e+07 2.00854e+07 2.00854e+07 2.00854e+07 2.00854e+07 2.00854e+07 2.00854e+07 2.00854e+07 2.00854e+07 2.00854e+07 2.00854e+07 2.00854e+07
          2.00854e+07 2.00854e+07 2.00854e+07 2.00854e+07 2.00854e+07 2.00854e+07 2.00855e+07 2.00858e+07 2.00898e+07 2.01195e+07 2.01848e+07 2.03094e+07
          2.05266e+07 2.08914e+07 2.14802e+07 2.23834e+07 2.36791e+07 2.54083e+07 2.75292e+07 3e+07 3e+07 2.75138e+07 2.53957e+07 2.3666e+07
          2.23704e+07 2.14672e+07 2.08784e+07 2.05136e+07 2.02964e+07 2.01718e+07 2.01065e+07 2.00767e+07 2.00728e+07 2.00725e+07 2.00725e+07 2.00725e+07
          2.00725e+07 2.00725e+07 2.00725e+07 2.00725e+07 2.00725e+07 2.00725e+07 2.00725e+07 2.00725e+07 2.00725e+07 2.00725e+07 2.00725e+07 2.00725e+07
          2.00725e+07 2.00725e+07 2.00725e+07 2.00725e+07 2.00725e+07 2.00725e+07 2.00725e+07 2.00725e+07 2.00725e+07 2.00725e+07 2.00725e+07 2.00725e+07
          2.00725e+07 2.00725e+07 2.00725e+07 2.00725e+07 2.00725e+07 2.00724e+07 2.00718e+07 2.00682e+07 2.00445e+07 1.9778e+07 1.34074e+07 1.9778e+07
          2.00445e+07 2.00682e+07 2.00718e+07 2.00724e+07 2.00725e+07 2.00725e+07 2.00725e+07 2.00725e+07 2.00725e+07 2.00725e+07 2.00725e+07 2.00725e+07
          2.00725e+07 2.00725e+07 2.00725e+07 2.00725e+07 2.00725e+07 2.00725e+07 2.00725e+07 2.00725e+07 2.00725e+07 2.00725e+07 2.00725e+07 2.00725e+07
          2.00725e+07 2.00725e+07 2.00725e+07 2.00725e+07 2.00725e+07 2.00725e+07 2.00725e+07 2.00725e+07 2.00725e+07 2.00725e+07 2.00725e+07 2.00725e+07
          2.00728e+07 2.00767e+07 2.01065e+07 2.01718e+07 2.02964e+07 2.05136e+07 2.08784e+07 2.14672e+07 2.23704e+07 2.3666e+07 2.53957e+07 2.75138e+07
          3e+07 2.99352e+07 2.75096e+07 2.53813e+07 2.36533e+07 2.23574e+07 2.14543e+07 2.08655e+07 2.05006e+07 2.02834e+07 2.01588e+07 2.00936e+07
          2.00636e+07 2.00598e+07 2.00596e+07 2.00595e+07 2.00595e+07 2.00595e+07 2.00595e+07 2.00595e+07 2.00595e+07 2.00595e+07 2.00595e+07 2.00595e+07
          2.00595e+07 2.00595e+07 2.00595e+07 2.00595e+07 2.00595e+07 2.00595e+07 2.00595e+07 2.00595e+07 2.00595e+07 2.00595e+07 2.00595e+07 2.00595e+07
          2.00595e+07 2.00595e+07 2.00595e+07 2.00595e+07 2.00595e+07 2.00595e+07 2.00595e+07 2.00595e+07 2.00595e+07 2.00595e+07 2.00594e+07 2.00588e+07
          2.00555e+07 2.00305e+07 1.97813e+07 1.33729e+07 1.97813e+07 2.00305e+07 2.00555e+07 2.00588e+07 2.00594e+07 2.00595e+07 2.00595e+07 2.00595e+07
          2.00595e+07 2.00595e+07 2.00595e+07 2.00595e+07 2.00595e+07 2.00595e+07 2.00595e+07 2.00595e+07 2.00595e+07 2.00595e+07 2.00595e+07 2.00595e+07
          2.00595e+07 2.00595e+07 2.00595e+07 2.00595e+07 2.00595e+07 2.00595e+07 2.00595e+07 2.00595e+07 2.00595e+07 2.00595e+07 2.00595e+07 2.00595e+07
          2.00595e+07 2.00595e+07 2.00595e+07 2.00595e+07 2.00596e+07 2.00598e+07 2.00636e+07 2.00936e+07 2.01588e+07 2.02834e+07 2.05006e+07 2.08655e+07
          2.14543e+07 2.23574e+07 2.36533e+07 2.53813e+07 2.75096e+07 2.99352e+07 2.98885e+07 2.75021e+07 2.53675e+07 2.36404e+07 2.23444e+07 2.14413e+07
          2.08525e+07 2.04876e+07 2.02704e+07 2.01458e+07 2.00806e+07 2.00504e+07 2.00469e+07 2.00466e+07 2.00465e+07 2.00465e+07 2.00465e+07 2.00465e+07
          2.00465e+07 2.00465e+07 2.00465e+07 2.00465e+07 2.00465e+07 2.00465e+07 2.00465e+07 2.00465e+07 2.00465e+07 2.00465e+07 2.00465e+07 2.00465e+07
          2.00465e+07 2.00465e+07 2.00465e+07 2.00465e+07 2.00465e+07 2.00465e+07 2.00465e+07 2.00465e+07 2.00465e+07 2.00465e+07 2.00465e+07 2.00465e+07
          2.00465e+07 2.00465e+07 2.00465e+07 2.00465e+07 2.00458e+07 2.00428e+07 2.00168e+07 1.97848e+07 1.33333e+07 1.97848e+07 2.00168e+07 2.00428e+07
          2.00458e+07 2.00465e+07 2.00465e+07 2.00465e+07 2.00465e+07 2.00465e+07 2.00465e+07 2.00465e+07 2.00465e+07 2.00465e+07 2.00465e+07 2.00465e+07
          2.00465e+07 2.00465e+07 2.00465e+07 2.00465e+07 2.00465e+07 2.00465e+07 2.00465e+07 2.00465e+07 2.00465e+07 2.00465e+07 2.00465e+07 2.00465e+07
          2.00465e+07 2.00465e+07 2.00465e+07 2.00465e+07 2.00465e+07 2.00465e+07 2.00465e+07 2.00465e+07 2.00465e+07 2.00466e+07 2.00469e+07 2.00504e+07
          2.00806e+07 2.01458e+07 2.02704e+07 2.04876e+07 2.08525e+07 2.14413e+07 2.23444e+07 2.36404e+07 2.53675e+07 2.75021e+07 2.98885e+07 2.98498e+07
          2.74933e+07 2.53538e+07 2.36276e+07 2.23314e+07 2.14283e+07 2.08395e+07 2.04747e+07 2.02575e+07 2.01328e+07 2.00677e+07 2.00372e+07 2.00339e+07
          2.00336e+07 2.00336e+07 2.00336e+07 2.00336e+07 2.00336e+07 2.00336e+07 2.00336e+07 2.00336e+07 2.00336e+07 2.00336e+07 2.00336e+07 2.00336e+07
          2.00336e+07 2.00336e+07 2.00336e+07 2.00336e+07 2.00336e+07 2.00336e+07 2.00336e+07 2.00336e+07 2.00336e+07 2.00336e+07 2.00336e+07 2.00336e+07
          2.00336e+07 2.00336e+07 2.00336e+07 2.00336e+07 2.00336e+07 2.00336e+07 2.00336e+07 2.00335e+07 2.00335e+07 2.00329e+07 2.00298e+07 2.00049e+07
          1.97797e+07 1.33333e+07 1.97797e+07 2.00049e+07 2.00298e+07 2.00329e+07 2.00335e+07 2.00335e+07 2.00336e+07 2.00336e+07 2.00336e+07 2.00336e+07
          2.00336e+07 2.00336e+07 2.00336e+07 2.00336e+07 2.00336e+07 2.00336e+07 2.00336e+07 2.00336e+07 2.00336e+07 2.00336e+07 2.00336e+07 2.00336e+07
          2.00336e+07 2.00336e+07 2.00336e+07 2.00336e+07 2.00336e+07 2.00336e+07 2.00336e+07 2.00336e+07 2.00336e+07 2.00336e+07 2.00336e+07 2.00336e+07
          2.00336e+07 2.00336e+07 2.00336e+07 2.00339e+07 2.00372e+07 2.00677e+07 2.01328e+07 2.02575e+07 2.04747e+07 2.08395e+07 2.14283e+07 2.23314e+07
          2.36276e+07 2.53538e+07 2.74933e+07 2.98498e+07 2.98186e+07 2.74832e+07 2.53404e+07 2.36146e+07 2.23184e+07 2.14154e+07 2.08266e+07 2.04617e+07
          2.02445e+07 2.01199e+07 2.00547e+07 2.0024e+07 2.00209e+07 2.00206e+07 2.00206e+07 2.00206e+07 2.00206e+07 2.00206e+07 2.00206e+07 2.00206e+07
          2.00206e+07 2.00206e+07 2.00206e+07 2.00206e+07 2.00206e+07 2.00206e+07 2.00206e+07 2.00206e+07 2.00206e+07 2.00206e+07 2.00206e+07 2.00206e+07
          2.00206e+07 2.00206e+07 2.00206e+07 2.00206e+07 2.00206e+07 2.00206e+07 2.00206e+07 2.00206e+07 2.00206e+07 2.00206e+07 2.00206e+07 2.00206e+07
          2.00206e+07 2.00205e+07 2.00199e+07 2.00168e+07 1.99936e+07 1.97725e+07 1.33333e+07 1.97725e+07 1.99936e+07 2.00168e+07 2.00199e+07 2.00205e+07
          2.00206e+07 2.00206e+07 2.00206e+07 2.00206e+07 2.00206e+07 2.00206e+07 2.00206e+07 2.00206e+07 2.00206e+07 2.00206e+07 2.00206e+07 2.00206e+07
          2.00206e+07 2.00206e+07 2.00206e+07 2.00206e+07 2.00206e+07 2.00206e+07 2.00206e+07 2.00206e+07 2.00206e+07 2.00206e+07 2.00206e+07 2.00206e+07
          2.00206e+07 2.00206e+07 2.00206e+07 2.00206e+07 2.00206e+07 2.00206e+07 2.00206e+07 2.00206e+07 2.00209e+07 2.0024e+07 2.00547e+07 2.01199e+07
          2.02445e+07 2.04617e+07 2.08266e+07 2.14154e+07 2.23184e+07 2.36146e+07 2.53404e+07 2.74832e+07 2.98186e+07 2.97947e+07 2.74719e+07 2.53272e+07
          2.36017e+07 2.23055e+07 2.14024e+07 2.08136e+07 2.04487e+07 2.02315e+07 2.01069e+07 2.00418e+07 2.00108e+07 2.0008e+07 2.00077e+07 2.00076e+07
          2.00076e+07 2.00076e+07 2.00076e+07 2.00076e+07 2.00076e+07 2.00076e+07 2.00076e+07 2.00076e+07 2.00076e+07 2.00076e+07 2.00076e+07 2.00076e+07
          2.00076e+07 2.00076e+07 2.00076e+07 2.00076e+07 2.00076e+07 2.00076e+07 2.00076e+07 2.00076e+07 2.00076e+07 2.00076e+07 2.00076e+07 2.00076e+07
          2.00076e+07 2.00076e+07 2.00076e+07 2.00076e+07 2.00076e+07 2.00076e+07 2.00075e+07 2.0007e+07 2.00038e+07 1.99818e+07 1.97636e+07 1.33333e+07
          1.97636e+07 1.99818e+07 2.00038e+07 2.0007e+07 2.00075e+07 2.00076e+07 2.00076e+07 2.00076e+07 2.00076e+07 2.00076e+07 2.00076e+07 2.00076e+07
          2.00076e+07 2.00076e+07 2.00076e+07 2.00076e+07 2.00076e+07 2.00076e+07 2.00076e+07 2.00076e+07 2.00076e+07 2.00076e+07 2.00076e+07 2.00076e+07
          2.00076e+07 2.00076e+07 2.00076e+07 2.00076e+07 2.00076e+07 2.00076e+07 2.00076e+07 2.00076e+07 2.00076e+07 2.00076e+07 2.00076e+07 2.00076e+07
          2.00077e+07 2.0008e+07 2.00108e+07 2.00418e+07 2.01069e+07 2.02315e+07 2.04487e+07 2.08136e+07 2.14024e+07 2.23055e+07 2.36017e+07 2.53272e+07
          2.74719e+07 2.97947e+07 2.9778e+07 2.74595e+07 2.53141e+07 2.35887e+07 2.22925e+07 2.13894e+07 2.08006e+07 2.04358e+07 2.02186e+07 2.00939e+07
          2.00289e+07 1.99974e+07 1.9995e+07 1.99947e+07 1.99947e+07 1.99946e+07 1.99946e+07 1.99946e+07 1.99946e+07 1.99946e+07 1.99946e+07 1.99946e+07
          1.99946e+07 1.99946e+07 1.99946e+07 1.99946e+07 1.99946e+07 1.99946e+07 1.99946e+07 1.99946e+07 1.99946e+07 1.99946e+07 1.99946e+07 1.99946e+07
          1.99946e+07 1.99946e+07 1.99946e+07 1.99946e+07 1.99946e+07 1.99946e+07 1.99946e+07 1.99946e+07 1.99946e+07 1.99946e+07 1.99946e+07 1.99946e+07
          1.9994e+07 1.9991e+07 1.99695e+07 1.97532e+07 1.33333e+07 1.97532e+07 1.99695e+07 1.9991e+07 1.9994e+07 1.99946e+07 1.99946e+07 1.99946e+07
          1.99946e+07 1.99946e+07 1.99946e+07 1.99946e+07 1.99946e+07 1.99946e+07 1.99946e+07 1.99946e+07 1.99946e+07 1.99946e+07 1.99946e+07 1.99946e+07
          1.99946e+07 1.99946e+07 1.99946e+07 1.99946e+07 1.99946e+07 1.99946e+07 1.99946e+07 1.99946e+07 1.99946e+07 1.99946e+07 1.99946e+07 1.99946e+07
          1.99946e+07 1.99946e+07 1.99946e+07 1.99946e+07 1.99947e+07 1.99947e+07 1.9995e+07 1.99974e+07 2.00289e+07 2.00939e+07 2.02186e+07 2.04358e+07
          2.08006e+07 2.13894e+07 2.22925e+07 2.35887e+07 2.53141e+07 2.74595e+07 2.9778e+07
        </DataArray>
        <DataArray type="Float32" Name="pressure_w" NumberOfComponents="1" format="ascii">
          3e+07 2.75749e+07 3e+07 2.75597e+07 2.5446e+07 2.54334e+07 2.37182e+07 2.37052e+07 2.24223e+07 2.24093e+07 2.15192e+07 2.15062e+07
          2.09303e+07 2.09174e+07 2.05655e+07 2.05525e+07 2.03483e+07 2.03353e+07 2.02237e+07 2.02107e+07 2.01584e+07 2.01454e+07 2.01288e+07 2.01158e+07
          2.01247e+07 2.01117e+07 2.01244e+07 2.01114e+07 2.01244e+07 2.01114e+07 2.01244e+07 2.01114e+07 2.01244e+07 2.01114e+07 2.01244e+07 2.01114e+07
          2.01244e+07 2.01114e+07 2.01244e+07 2.01114e+07 2.01244e+07 2.01114e+07 2.01244e+07 2.01114e+07 2.01244e+07 2.01114e+07 2.01244e+07 2.01114e+07
          2.01244e+07 2.01114e+07 2.01244e+07 2.01114e+07 2.01244e+07 2.01114e+07 2.01244e+07 2.01114e+07 2.01244e+07 2.01114e+07 2.01244e+07 2.01114e+07
          2.01244e+07 2.01114e+07 2.01244e+07 2.01114e+07 2.01244e+07 2.01114e+07 2.01244e+07 2.01114e+07 2.01244e+07 2.01114e+07 2.01244e+07 2.01114e+07
          2.01244e+07 2.01114e+07 2.01244e+07 2.01114e+07 2.01244e+07 2.01114e+07 2.01244e+07 2.01114e+07 2.01244e+07 2.01114e+07 2.01244e+07 2.01114e+07
          2.01244e+07 2.01114e+07 2.01244e+07 2.01114e+07 2.01243e+07 2.01114e+07 2.01242e+07 2.01113e+07 2.01238e+07 2.01108e+07 2.01193e+07 2.01064e+07
          2.00996e+07 2.00863e+07 1.97919e+07 1.97822e+07 1.34756e+07 1.34701e+07 1.97919e+07 1.97822e+07 2.00996e+07 2.00863e+07 2.01193e+07 2.01064e+07
          2.01238e+07 2.01108e+07 2.01242e+07 2.01113e+07 2.01243e+07 2.01114e+07 2.01244e+07 2.01114e+07 2.01244e+07 2.01114e+07 2.01244e+07 2.01114e+07
          2.01244e+07 2.01114e+07 2.01244e+07 2.01114e+07 2.01244e+07 2.01114e+07 2.01244e+07 2.01114e+07 2.01244e+07 2.01114e+07 2.01244e+07 2.01114e+07
          2.01244e+07 2.01114e+07 2.01244e+07 2.01114e+07 2.01244e+07 2.01114e+07 2.01244e+07 2.01114e+07 2.01244e+07 2.01114e+07 2.01244e+07 2.01114e+07
          2.01244e+07 2.01114e+07 2.01244e+07 2.01114e+07 2.01244e+07 2.01114e+07 2.01244e+07 2.01114e+07 2.01244e+07 2.01114e+07 2.01244e+07 2.01114e+07
          2.01244e+07 2.01114e+07 2.01244e+07 2.01114e+07 2.01244e+07 2.01114e+07 2.01244e+07 2.01114e+07 2.01244e+07 2.01114e+07 2.01244e+07 2.01114e+07
          2.01244e+07 2.01114e+07 2.01244e+07 2.01114e+07 2.01244e+07 2.01114e+07 2.01244e+07 2.01114e+07 2.01247e+07 2.01117e+07 2.01288e+07 2.01158e+07
          2.01584e+07 2.01454e+07 2.02237e+07 2.02107e+07 2.03483e+07 2.03353e+07 2.05655e+07 2.05525e+07 2.09303e+07 2.09174e+07 2.15192e+07 2.15062e+07
          2.24223e+07 2.24093e+07 2.37182e+07 2.37052e+07 2.5446e+07 2.54334e+07 2.75749e+07 2.75597e+07 3e+07 3e+07 3e+07 2.75444e+07
          2.54208e+07 2.36921e+07 2.23964e+07 2.14932e+07 2.09044e+07 2.05395e+07 2.03223e+07 2.01977e+07 2.01324e+07 2.01028e+07 2.00988e+07 2.00985e+07
          2.00984e+07 2.00984e+07 2.00984e+07 2.00984e+07 2.00984e+07 2.00984e+07 2.00984e+07 2.00984e+07 2.00984e+07 2.00984e+07 2.00984e+07 2.00984e+07
          2.00984e+07 2.00984e+07 2.00984e+07 2.00984e+07 2.00984e+07 2.00984e+07 2.00984e+07 2.00984e+07 2.00984e+07 2.00984e+07 2.00984e+07 2.00984e+07
          2.00984e+07 2.00984e+07 2.00984e+07 2.00984e+07 2.00984e+07 2.00984e+07 2.00984e+07 2.00983e+07 2.00978e+07 2.00936e+07 2.00726e+07 1.97774e+07
          1.34566e+07 1.97774e+07 2.00726e+07 2.00936e+07 2.00978e+07 2.00983e+07 2.00984e+07 2.00984e+07 2.00984e+07 2.00984e+07 2.00984e+07 2.00984e+07
          2.00984e+07 2.00984e+07 2.00984e+07 2.00984e+07 2.00984e+07 2.00984e+07 2.00984e+07 2.00984e+07 2.00984e+07 2.00984e+07 2.00984e+07 2.00984e+07
          2.00984e+07 2.00984e+07 2.00984e+07 2.00984e+07 2.00984e+07 2.00984e+07 2.00984e+07 2.00984e+07 2.00984e+07 2.00984e+07 2.00984e+07 2.00984e+07
          2.00984e+07 2.00985e+07 2.00988e+07 2.01028e+07 2.01324e+07 2.01977e+07 2.03223e+07 2.05395e+07 2.09044e+07 2.14932e+07 2.23964e+07 2.36921e+07
          2.54208e+07 2.75444e+07 3e+07 3e+07 2.75292e+07 2.54083e+07 2.36791e+07 2.23834e+07 2.14802e+07 2.08914e+07 2.05266e+07 2.03094e+07
          2.01848e+07 2.01195e+07 2.00898e+07 2.00858e+07 2.00855e+07 2.00854e+07 2.00854e+07 2.00854e+07 2.00854e+07 2.00854e+07 2.00854e+07 2.00854e+07
          2.00854e+07 2.00854e+07 2.00854e+07 2.00854e+07 2.00854e+07 2.00854e+07 2.00854e+07 2.00854e+07 2.00854e+07 2.00854e+07 2.00854e+07 2.00854e+07
          2.00854e+07 2.00854e+07 2.00854e+07 2.00854e+07 2.00854e+07 2.00854e+07 2.00854e+07 2.00854e+07 2.00854e+07 2.00854e+07 2.00854e+07 2.00854e+07
          2.00853e+07 2.00848e+07 2.00809e+07 2.00586e+07 1.97763e+07 1.34356e+07 1.97763e+07 2.00586e+07 2.00809e+07 2.00848e+07 2.00853e+07 2.00854e+07
          2.00854e+07 2.00854e+07 2.00854e+07 2.00854e+07 2.00854e+07 2.00854e+07 2.00854e+07 2.00854e+07 2.00854e+07 2.00854e+07 2.00854e+07 2.00854e+07
          2.00854e+07 2.00854e+07 2.00854e+07 2.00854e+07 2.00854e+07 2.00854e+07 2.00854e+07 2.00854e+07 2.00854e+07 2.00854e+07 2.00854e+07 2.00854e+07
          2.00854e+07 2.00854e+07 2.00854e+07 2.00854e+07 2.00854e+07 2.00854e+07 2.00855e+07 2.00858e+07 2.00898e+07 2.01195e+07 2.01848e+07 2.03094e+07
          2.05266e+07 2.08914e+07 2.14802e+07 2.23834e+07 2.36791e+07 2.54083e+07 2.75292e+07 3e+07 3e+07 2.75138e+07 2.53957e+07 2.3666e+07
          2.23704e+07 2.14672e+07 2.08784e+07 2.05136e+07 2.02964e+07 2.01718e+07 2.01065e+07 2.00767e+07 2.00728e+07 2.00725e+07 2.00725e+07 2.00725e+07
          2.00725e+07 2.00725e+07 2.00725e+07 2.00725e+07 2.00725e+07 2.00725e+07 2.00725e+07 2.00725e+07 2.00725e+07 2.00725e+07 2.00725e+07 2.00725e+07
          2.00725e+07 2.00725e+07 2.00725e+07 2.00725e+07 2.00725e+07 2.00725e+07 2.00725e+07 2.00725e+07 2.00725e+07 2.00725e+07 2.00725e+07 2.00725e+07
          2.00725e+07 2.00725e+07 2.00725e+07 2.00725e+07 2.00725e+07 2.00724e+07 2.00718e+07 2.00682e+07 2.00445e+07 1.9778e+07 1.34074e+07 1.9778e+07
          2.00445e+07 2.00682e+07 2.00718e+07 2.00724e+07 2.00725e+07 2.00725e+07 2.00725e+07 2.00725e+07 2.00725e+07 2.00725e+07 2.00725e+07 2.00725e+07
          2.00725e+07 2.00725e+07 2.00725e+07 2.00725e+07 2.00725e+07 2.00725e+07 2.00725e+07 2.00725e+07 2.00725e+07 2.00725e+07 2.00725e+07 2.00725e+07
          2.00725e+07 2.00725e+07 2.00725e+07 2.00725e+07 2.00725e+07 2.00725e+07 2.00725e+07 2.00725e+07 2.00725e+07 2.00725e+07 2.00725e+07 2.00725e+07
          2.00728e+07 2.00767e+07 2.01065e+07 2.01718e+07 2.02964e+07 2.05136e+07 2.08784e+07 2.14672e+07 2.23704e+07 2.3666e+07 2.53957e+07 2.75138e+07
          3e+07 2.99352e+07 2.75096e+07 2.53813e+07 2.36533e+07 2.23574e+07 2.14543e+07 2.08655e+07 2.05006e+07 2.02834e+07 2.01588e+07 2.00936e+07
          2.00636e+07 2.00598e+07 2.00596e+07 2.00595e+07 2.00595e+07 2.00595e+07 2.00595e+07 2.00595e+07 2.00595e+07 2.00595e+07 2.00595e+07 2.00595e+07
          2.00595e+07 2.00595e+07 2.00595e+07 2.00595e+07 2.00595e+07 2.00595e+07 2.00595e+07 2.00595e+07 2.00595e+07 2.00595e+07 2.00595e+07 2.00595e+07
          2.00595e+07 2.00595e+07 2.00595e+07 2.00595e+07 2.00595e+07 2.00595e+07 2.00595e+07 2.00595e+07 2.00595e+07 2.00595e+07 2.00594e+07 2.00588e+07
          2.00555e+07 2.00305e+07 1.97813e+07 1.33729e+07 1.97813e+07 2.00305e+07 2.00555e+07 2.00588e+07 2.00594e+07 2.00595e+07 2.00595e+07 2.00595e+07
          2.00595e+07 2.00595e+07 2.00595e+07 2.00595e+07 2.00595e+07 2.00595e+07 2.00595e+07 2.00595e+07 2.00595e+07 2.00595e+07 2.00595e+07 2.00595e+07
          2.00595e+07 2.00595e+07 2.00595e+07 2.00595e+07 2.00595e+07 2.00595e+07 2.00595e+07 2.00595e+07 2.00595e+07 2.00595e+07 2.00595e+07 2.00595e+07
          2.00595e+07 2.00595e+07 2.00595e+07 2.00595e+07 2.00596e+07 2.00598e+07 2.00636e+07 2.00936e+07 2.01588e+07 2.02834e+07 2.05006e+07 2.08655e+07
          2.14543e+07 2.23574e+07 2.36533e+07 2.53813e+07 2.75096e+07 2.99352e+07 2.98885e+07 2.75021e+07 2.53675e+07 2.36404e+07 2.23444e+07 2.14413e+07
          2.08525e+07 2.04876e+07 2.02704e+07 2.01458e+07 2.00806e+07 2.00504e+07 2.00469e+07 2.00466e+07 2.00465e+07 2.00465e+07 2.00465e+07 2.00465e+07
          2.00465e+07 2.00465e+07 2.00465e+07 2.00465e+07 2.00465e+07 2.00465e+07 2.00465e+07 2.00465e+07 2.00465e+07 2.00465e+07 2.00465e+07 2.00465e+07
          2.00465e+07 2.00465e+07 2.00465e+07 2.00465e+07 2.00465e+07 2.00465e+07 2.00465e+07 2.00465e+07 2.00465e+07 2.00465e+07 2.00465e+07 2.00465e+07
          2.00465e+07 2.00465e+07 2.00465e+07 2.00465e+07 2.00458e+07 2.00428e+07 2.00168e+07 1.97848e+07 1.33333e+07 1.97848e+07 2.00168e+07 2.00428e+07
          2.00458e+07 2.00465e+07 2.00465e+07 2.00465e+07 2.00465e+07 2.00465e+07 2.00465e+07 2.00465e+07 2.00465e+07 2.00465e+07 2.00465e+07 2.00465e+07
          2.00465e+07 2.00465e+07 2.00465e+07 2.00465e+07 2.00465e+07 2.00465e+07 2.00465e+07 2.00465e+07 2.00465e+07 2.00465e+07 2.00465e+07 2.00465e+07
          2.00465e+07 2.00465e+07 2.00465e+07 2.00465e+07 2.00465e+07 2.00465e+07 2.00465e+07 2.00465e+07 2.00465e+07 2.00466e+07 2.00469e+07 2.00504e+07
          2.00806e+07 2.01458e+07 2.02704e+07 2.04876e+07 2.08525e+07 2.14413e+07 2.23444e+07 2.36404e+07 2.53675e+07 2.75021e+07 2.98885e+07 2.98498e+07
          2.74933e+07 2.53538e+07 2.36276e+07 2.23314e+07 2.14283e+07 2.08395e+07 2.04747e+07 2.02575e+07 2.01328e+07 2.00677e+07 2.00372e+07 2.00339e+07
          2.00336e+07 2.00336e+07 2.00336e+07 2.00336e+07 2.00336e+07 2.00336e+07 2.00336e+07 2.00336e+07 2.00336e+07 2.00336e+07 2.00336e+07 2.00336e+07
          2.00336e+07 2.00336e+07 2.00336e+07 2.00336e+07 2.00336e+07 2.00336e+07 2.00336e+07 2.00336e+07 2.00336e+07 2.00336e+07 2.00336e+07 2.00336e+07
          2.00336e+07 2.00336e+07 2.00336e+07 2.00336e+07 2.00336e+07 2.00336e+07 2.00336e+07 2.00335e+07 2.00335e+07 2.00329e+07 2.00298e+07 2.00049e+07
          1.97797e+07 1.33333e+07 1.97797e+07 2.00049e+07 2.00298e+07 2.00329e+07 2.00335e+07 2.00335e+07 2.00336e+07 2.00336e+07 2.00336e+07 2.00336e+07
          2.00336e+07 2.00336e+07 2.00336e+07 2.00336e+07 2.00336e+07 2.00336e+07 2.00336e+07 2.00336e+07 2.00336e+07 2.00336e+07 2.00336e+07 2.00336e+07
          2.00336e+07 2.00336e+07 2.00336e+07 2.00336e+07 2.00336e+07 2.00336e+07 2.00336e+07 2.00336e+07 2.00336e+07 2.00336e+07 2.00336e+07 2.00336e+07
          2.00336e+07 2.00336e+07 2.00336e+07 2.00339e+07 2.00372e+07 2.00677e+07 2.01328e+07 2.02575e+07 2.04747e+07 2.08395e+07 2.14283e+07 2.23314e+07
          2.36276e+07 2.53538e+07 2.74933e+07 2.98498e+07 2.98186e+07 2.74832e+07 2.53404e+07 2.36146e+07 2.23184e+07 2.14154e+07 2.08266e+07 2.04617e+07
          2.02445e+07 2.01199e+07 2.00547e+07 2.0024e+07 2.00209e+07 2.00206e+07 2.00206e+07 2.00206e+07 2.00206e+07 2.00206e+07 2.00206e+07 2.00206e+07
          2.00206e+07 2.00206e+07 2.00206e+07 2.00206e+07 2.00206e+07 2.00206e+07 2.00206e+07 2.00206e+07 2.00206e+07 2.00206e+07 2.00206e+07 2.00206e+07
          2.00206e+07 2.00206e+07 2.00206e+07 2.00206e+07 2.00206e+07 2.00206e+07 2.00206e+07 2.00206e+07 2.00206e+07 2.00206e+07 2.00206e+07 2.00206e+07
          2.00206e+07 2.00205e+07 2.00199e+07 2.00168e+07 1.99936e+07 1.97725e+07 1.33333e+07 1.97725e+07 1.99936e+07 2.00168e+07 2.00199e+07 2.00205e+07
          2.00206e+07 2.00206e+07 2.00206e+07 2.00206e+07 2.00206e+07 2.00206e+07 2.00206e+07 2.00206e+07 2.00206e+07 2.00206e+07 2.00206e+07 2.00206e+07
          2.00206e+07 2.00206e+07 2.00206e+07 2.00206e+07 2.00206e+07 2.00206e+07 2.00206e+07 2.00206e+07 2.00206e+07 2.00206e+07 2.00206e+07 2.00206e+07
          2.00206e+07 2.00206e+07 2.00206e+07 2.00206e+07 2.00206e+07 2.00206e+07 2.00206e+07 2.00206e+07 2.00209e+07 2.0024e+07 2.00547e+07 2.01199e+07
          2.02445e+07 2.04617e+07 2.08266e+07 2.14154e+07 2.23184e+07 2.36146e+07 2.53404e+07 2.74832e+07 2.98186e+07 2.97947e+07 2.74719e+07 2.53272e+07
          2.36017e+07 2.23055e+07 2.14024e+07 2.08136e+07 2.04487e+07 2.02315e+07 2.01069e+07 2.00418e+07 2.00108e+07 2.0008e+07 2.00077e+07 2.00076e+07
          2.00076e+07 2.00076e+07 2.00076e+07 2.00076e+07 2.00076e+07 2.00076e+07 2.00076e+07 2.00076e+07 2.00076e+07 2.00076e+07 2.00076e+07 2.00076e+07
          2.00076e+07 2.00076e+07 2.00076e+07 2.00076e+07 2.00076e+07 2.00076e+07 2.00076e+07 2.00076e+07 2.00076e+07 2.00076e+07 2.00076e+07 2.00076e+07
          2.00076e+07 2.00076e+07 2.00076e+07 2.00076e+07 2.00076e+07 2.00076e+07 2.00075e+07 2.0007e+07 2.00038e+07 1.99818e+07 1.97636e+07 1.33333e+07
          1.97636e+07 1.99818e+07 2.00038e+07 2.0007e+07 2.00075e+07 2.00076e+07 2.00076e+07 2.00076e+07 2.00076e+07 2.00076e+07 2.00076e+07 2.00076e+07
          2.00076e+07 2.00076e+07 2.00076e+07 2.00076e+07 2.00076e+07 2.00076e+07 2.00076e+07 2.00076e+07 2.00076e+07 2.00076e+07 2.00076e+07 2.00076e+07
          2.00076e+07 2.00076e+07 2.00076e+07 2.00076e+07 2.00076e+07 2.00076e+07 2.00076e+07 2.00076e+07 2.00076e+07 2.00076e+07 2.00076e+07 2.00076e+07
          2.00077e+07 2.0008e+07 2.00108e+07 2.00418e+07 2.01069e+07 2.02315e+07 2.04487e+07 2.08136e+07 2.14024e+07 2.23055e+07 2.36017e+07 2.53272e+07
          2.74719e+07 2.97947e+07 2.9778e+07 2.74595e+07 2.53141e+07 2.35887e+07 2.22925e+07 2.13894e+07 2.08006e+07 2.04358e+07 2.02186e+07 2.00939e+07
          2.00289e+07 1.99974e+07 1.9995e+07 1.99947e+07 1.99947e+07 1.99946e+07 1.99946e+07 1.99946e+07 1.99946e+07 1.99946e+07 1.99946e+07 1.99946e+07
          1.99946e+07 1.99946e+07 1.99946e+07 1.99946e+07 1.99946e+07 1.99946e+07 1.99946e+07 1.99946e+07 1.99946e+07 1.99946e+07 1.99946e+07 1.99946e+07
          1.99946e+07 1.99946e+07 1.99946e+07 1.99946e+07 1.99946e+07 1.99946e+07 1.99946e+07 1.99946e+07 1.99946e+07 1.99946e+07 1.99946e+07 1.99946e+07
          1.9994e+07 1.9991e+07 1.99695e+07 1.97532e+07 1.33333e+07 1.97532e+07 1.99695e+07 1.9991e+07 1.9994e+07 1.99946e+07 1.99946e+07 1.99946e+07
          1.99946e+07 1.99946e+07 1.99946e+07 1.99946e+07 1.99946e+07 1.99946e+07 1.99946e+07 1.99946e+07 1.99946e+07 1.99946e+07 1.99946e+07 1.99946e+07
          1.99946e+07 1.99946e+07 1.99946e+07 1.99946e+07 1.99946e+07 1.99946e+07 1.99946e+07 1.99946e+07 1.99946e+07 1.99946e+07 1.99946e+07 1.99946e+07
          1.99946e+07 1.99946e+07 1.99946e+07 1.99946e+07 1.99947e+07 1.99947e+07 1.9995e+07 1.99974e+07 2.00289e+07 2.00939e+07 2.02186e+07 2.04358e+07
          2.08006e+07 2.13894e+07 2.22925e+07 2.35887e+07 2.53141e+07 2.74595e+07 2.9778e+07
        </DataArray>
        <DataArray type="Float32" Name="pressure_g" NumberOfComponents="1" format="ascii">
          3e+07 2.75749e+07 3e+07 2.75597e+07 2.5446e+07 2.54334e+07 2.37182e+07 2.37052e+07 2.24223e+07 2.24093e+07 2.15192e+07 2.15062e+07
          2.09303e+07 2.09174e+07 2.05655e+07 2.05525e+07 2.03483e+07 2.03353e+07 2.02237e+07 2.02107e+07 2.01584e+07 2.01454e+07 2.01288e+07 2.01158e+07
          2.01247e+07 2.01117e+07 2.01244e+07 2.01114e+07 2.01244e+07 2.01114e+07 2.01244e+07 2.01114e+07 2.01244e+07 2.01114e+07 2.01244e+07 2.01114e+07
          2.01244e+07 2.01114e+07 2.01244e+07 2.01114e+07 2.01244e+07 2.01114e+07 2.01244e+07 2.01114e+07 2.01244e+07 2.01114e+07 2.01244e+07 2.01114e+07
          2.01244e+07 2.01114e+07 2.01244e+07 2.01114e+07 2.01244e+07 2.01114e+07 2.01244e+07 2.01114e+07 2.01244e+07 2.01114e+07 2.01244e+07 2.01114e+07
          2.01244e+07 2.01114e+07 2.01244e+07 2.01114e+07 2.01244e+07 2.01114e+07 2.01244e+07 2.01114e+07 2.01244e+07 2.01114e+07 2.01244e+07 2.01114e+07
          2.01244e+07 2.01114e+07 2.01244e+07 2.01114e+07 2.01244e+07 2.01114e+07 2.01244e+07 2.01114e+07 2.01244e+07 2.01114e+07 2.01244e+07 2.01114e+07