<?xml version="1.0"?>
<VTKFile type="UnstructuredGrid" version="0.1" byte_order="LittleEndian">
  <UnstructuredGrid>
    <Piece NumberOfCells="1000" NumberOfPoints="1111">
      <PointData Scalars="pressure_o">
        <DataArray type="Float32" Name="pressure_o" NumberOfComponents="1" format="ascii">
          3e+07 2.75023e+07 3e+07 2.74936e+07 2.70207e+07 2.70133e+07 2.67802e+07 2.67726e+07 2.66934e+07 2.66859e+07 2.66636e+07 2.66561e+07
          2.66544e+07 2.66469e+07 2.66517e+07 2.66442e+07 2.6651e+07 2.66435e+07 2.66508e+07 2.66433e+07 2.66507e+07 2.66432e+07 2.66507e+07 2.66432e+07
          2.66507e+07 2.66432e+07 2.66507e+07 2.66432e+07 2.66507e+07 2.66432e+07 2.66507e+07 2.66432e+07 2.66507e+07 2.66432e+07 2.66507e+07 2.66432e+07
          2.66507e+07 2.66432e+07 2.66507e+07 2.66432e+07 2.66507e+07 2.66432e+07 2.66507e+07 2.66432e+07 2.66507e+07 2.66432e+07 2.66507e+07 2.66432e+07
          2.66507e+07 2.66432e+07 2.66507e+07 2.66432e+07 2.66507e+07 2.66432e+07 2.66507e+07 2.66432e+07 2.66507e+07 2.66432e+07 2.66507e+07 2.66432e+07
          2.66507e+07 2.66432e+07 2.66507e+07 2.66432e+07 2.66507e+07 2.66432e+07 2.66507e+07 2.66432e+07 2.66507e+07 2.66432e+07 2.66507e+07 2.66432e+07
          2.66507e+07 2.66432e+07 2.66507e+07 2.66432e+07 2.66507e+07 2.66432e+07 2.66507e+07 2.66432e+07 2.66506e+07 2.66431e+07 2.66502e+07 2.66427e+07
          2.66488e+07 2.66413e+07 2.66436e+07 2.66361e+07 2.66254e+07 2.66179e+07 2.65647e+07 2.65572e+07 2.63747e+07 2.63673e+07 2.58236e+07 2.58163e+07
          2.43691e+07 2.43619e+07 2.05055e+07 2.05012e+07 1.37417e+07 1.37279e+07 2.05055e+07 2.05012e+07 2.43691e+07 2.43619e+07 2.58236e+07 2.58163e+07
          2.63747e+07 2.63673e+07 2.65647e+07 2.65572e+07 2.66254e+07 2.66179e+07 2.66436e+07 2.66361e+07 2.66488e+07 2.66413e+07 2.66502e+07 2.66427e+07
          2.66506e+07 2.66431e+07 2.66507e+07 2.66432e+07 2.66507e+07 2.66432e+07 2.66507e+07 2.66432e+07 2.66507e+07 2.66432e+07 2.66507e+07 2.66432e+07
          2.66507e+07 2.66432e+07 2.66507e+07 2.66432e+07 2.66507e+07 2.66432e+07 2.66507e+07 2.66432e+07 2.66507e+07 2.66432e+07 2.66507e+07 2.66432e+07
          2.66507e+07 2.66432e+07 2.66507e+07 2.66432e+07 2.66507e+07 2.66432e+07 2.66507e+07 2.66432e+07 2.66507e+07 2.66432e+07 2.66507e+07 2.66432e+07
          2.66507e+07 2.66432e+07 2.66507e+07 2.66432e+07 2.66507e+07 2.66432e+07 2.66507e+07 2.66432e+07 2.66507e+07 2.66432e+07 2.66507e+07 2.66432e+07
          2.66507e+07 2.66432e+07 2.66507e+07 2.66432e+07 2.66507e+07 2.66432e+07 2.66507e+07 2.66432e+07 2.66507e+07 2.66432e+07 2.66507e+07 2.66432e+07
          2.66507e+07 2.66432e+07 2.66508e+07 2.66433e+07 2.6651e+07 2.66435e+07 2.66517e+07 2.66442e+07 2.66544e+07 2.66469e+07 2.66636e+07 2.66561e+07
          2.66934e+07 2.66859e+07 2.67802e+07 2.67726e+07 2.70207e+07 2.70133e+07 2.75023e+07 2.74936e+07 3e+07 3e+07 3e+07 2.74857e+07
          2.70059e+07 2.67651e+07 2.66784e+07 2.66486e+07 2.66394e+07 2.66367e+07 2.6636e+07 2.66358e+07 2.66357e+07 2.66357e+07 2.66357e+07 2.66357e+07
          2.66357e+07 2.66357e+07 2.66357e+07 2.66357e+07 2.66357e+07 2.66357e+07 2.66357e+07 2.66357e+07 2.66357e+07 2.66357e+07 2.66357e+07 2.66357e+07
          2.66357e+07 2.66357e+07 2.66357e+07 2.66357e+07 2.66357e+07 2.66357e+07 2.66357e+07 2.66357e+07 2.66357e+07 2.66357e+07 2.66357e+07 2.66357e+07
          2.66357e+07 2.66357e+07 2.66356e+07 2.66352e+07 2.66338e+07 2.66286e+07 2.66105e+07 2.65498e+07 2.63598e+07 2.58091e+07 2.43542e+07 2.05e+07
          1.36928e+07 2.05e+07 2.43542e+07 2.58091e+07 2.63598e+07 2.65498e+07 2.66105e+07 2.66286e+07 2.66338e+07 2.66352e+07 2.66356e+07 2.66357e+07
          2.66357e+07 2.66357e+07 2.66357e+07 2.66357e+07 2.66357e+07 2.66357e+07 2.66357e+07 2.66357e+07 2.66357e+07 2.66357e+07 2.66357e+07 2.66357e+07
          2.66357e+07 2.66357e+07 2.66357e+07 2.66357e+07 2.66357e+07 2.66357e+07 2.66357e+07 2.66357e+07 2.66357e+07 2.66357e+07 2.66357e+07 2.66357e+07
          2.66357e+07 2.66357e+07 2.66357e+07 2.66357e+07 2.66357e+07 2.66358e+07 2.6636e+07 2.66367e+07 2.66394e+07 2.66486e+07 2.66784e+07 2.67651e+07
          2.70059e+07 2.74857e+07 3e+07 3e+07 2.74786e+07 2.69985e+07 2.67575e+07 2.66709e+07 2.66411e+07 2.6632e+07 2.66293e+07 2.66285e+07
          2.66283e+07 2.66283e+07 2.66282e+07 2.66282e+07 2.66282e+07 2.66282e+07 2.66282e+07 2.66282e+07 2.66282e+07 2.66282e+07 2.66282e+07 2.66282e+07
          2.66282e+07 2.66282e+07 2.66282e+07 2.66282e+07 2.66282e+07 2.66282e+07 2.66282e+07 2.66282e+07 2.66282e+07 2.66282e+07 2.66282e+07 2.66282e+07
          2.66282e+07 2.66282e+07 2.66282e+07 2.66282e+07 2.66282e+07 2.66282e+07 2.66282e+07 2.66281e+07 2.66277e+07 2.66263e+07 2.66212e+07 2.6603e+07
          2.65423e+07 2.63524e+07 2.5802e+07 2.4346e+07 2.05023e+07 1.3636e+07 2.05023e+07 2.4346e+07 2.5802e+07 2.63524e+07 2.65423e+07 2.6603e+07
          2.66212e+07 2.66263e+07 2.66277e+07 2.66281e+07 2.66282e+07 2.66282e+07 2.66282e+07 2.66282e+07 2.66282e+07 2.66282e+07 2.66282e+07 2.66282e+07
          2.66282e+07 2.66282e+07 2.66282e+07 2.66282e+07 2.66282e+07 2.66282e+07 2.66282e+07 2.66282e+07 2.66282e+07 2.66282e+07 2.66282e+07 2.66282e+07
          2.66282e+07 2.66282e+07 2.66282e+07 2.66282e+07 2.66282e+07 2.66282e+07 2.66282e+07 2.66282e+07 2.66282e+07 2.66283e+07 2.66283e+07 2.66285e+07
          2.66293e+07 2.6632e+07 2.66411e+07 2.66709e+07 2.67575e+07 2.69985e+07 2.74786e+07 3e+07 3e+07 2.74723e+07 2.6991e+07 2.67499e+07
          2.66635e+07 2.66337e+07 2.66245e+07 2.66218e+07 2.6621e+07 2.66208e+07 2.66208e+07 2.66208e+07 2.66208e+07 2.66208e+07 2.66208e+07 2.66208e+07
          2.66208e+07 2.66208e+07 2.66208e+07 2.66208e+07 2.66208e+07 2.66208e+07 2.66208e+07 2.66208e+07 2.66208e+07 2.66208e+07 2.66208e+07 2.66208e+07
          2.66208e+07 2.66208e+07 2.66208e+07 2.66208e+07 2.66208e+07 2.66208e+07 2.66208e+07 2.66208e+07 2.66208e+07 2.66208e+07 2.66208e+07 2.66207e+07
          2.66206e+07 2.66203e+07 2.66188e+07 2.66137e+07 2.65955e+07 2.65349e+07 2.63449e+07 2.57951e+07 2.43372e+07 2.0508e+07 1.35574e+07 2.0508e+07
          2.43372e+07 2.57951e+07 2.63449e+07 2.65349e+07 2.65955e+07 2.66137e+07 2.66188e+07 2.66203e+07 2.66206e+07 2.66207e+07 2.66208e+07 2.66208e+07
          2.66208e+07 2.66208e+07 2.66208e+07 2.66208e+07 2.66208e+07 2.66208e+07 2.66208e+07 2.66208e+07 2.66208e+07 2.66208e+07 2.66208e+07 2.66208e+07
          2.66208e+07 2.66208e+07 2.66208e+07 2.66208e+07 2.66208e+07 2.66208e+07 2.66208e+07 2.66208e+07 2.66208e+07 2.66208e+07 2.66208e+07 2.66208e+07
          2.66208e+07 2.66208e+07 2.66208e+07 2.66208e+07 2.6621e+07 2.66218e+07 2.66245e+07 2.66337e+07 2.66635e+07 2.67499e+07 2.6991e+07 2.74723e+07
          3e+07 2.97885e+07 2.75031e+07 2.69772e+07 2.67434e+07 2.66558e+07 2.66262e+07 2.6617e+07 2.66143e+07 2.66136e+07 2.66134e+07 2.66133e+07
          2.66133e+07 2.66133e+07 2.66133e+07 2.66133e+07 2.66133e+07 2.66133e+07 2.66133e+07 2.66133e+07 2.66133e+07 2.66133e+07 2.66133e+07 2.66133e+07
          2.66133e+07 2.66133e+07 2.66133e+07 2.66133e+07 2.66133e+07 2.66133e+07 2.66133e+07 2.66133e+07 2.66133e+07 2.66133e+07 2.66133e+07 2.66133e+07
          2.66133e+07 2.66133e+07 2.66133e+07 2.66133e+07 2.66133e+07 2.66132e+07 2.66128e+07 2.66114e+07 2.66062e+07 2.65881e+07 2.65274e+07 2.63375e+07
          2.57882e+07 2.43278e+07 2.05174e+07 1.34566e+07 2.05174e+07 2.43278e+07 2.57882e+07 2.63375e+07 2.65274e+07 2.65881e+07 2.66062e+07 2.66114e+07
          2.66128e+07 2.66132e+07 2.66133e+07 2.66133e+07 2.66133e+07 2.66133e+07 2.66133e+07 2.66133e+07 2.66133e+07 2.66133e+07 2.66133e+07 2.66133e+07
          2.66133e+07 2.66133e+07 2.66133e+07 2.66133e+07 2.66133e+07 2.66133e+07 2.66133e+07 2.66133e+07 2.66133e+07 2.66133e+07 2.66133e+07 2.66133e+07
          2.66133e+07 2.66133e+07 2.66133e+07 2.66133e+07 2.66133e+07 2.66133e+07 2.66133e+07 2.66133e+07 2.66134e+07 2.66136e+07 2.66143e+07 2.6617e+07
          2.66262e+07 2.66558e+07 2.67434e+07 2.69772e+07 2.75031e+07 2.97885e+07 2.96126e+07 2.75286e+07 2.69643e+07 2.67368e+07 2.66482e+07 2.66188e+07
          2.66095e+07 2.66068e+07 2.66061e+07 2.66059e+07 2.66058e+07 2.66058e+07 2.66058e+07 2.66058e+07 2.66058e+07 2.66058e+07 2.66058e+07 2.66058e+07
          2.66058e+07 2.66058e+07 2.66058e+07 2.66058e+07 2.66058e+07 2.66058e+07 2.66058e+07 2.66058e+07 2.66058e+07 2.66058e+07 2.66058e+07 2.66058e+07
          2.66058e+07 2.66058e+07 2.66058e+07 2.66058e+07 2.66058e+07 2.66058e+07 2.66058e+07 2.66058e+07 2.66058e+07 2.66058e+07 2.66057e+07 2.66053e+07
          2.66039e+07 2.65987e+07 2.65806e+07 2.652e+07 2.633e+07 2.57814e+07 2.43177e+07 2.05307e+07 1.33333e+07 2.05307e+07 2.43177e+07 2.57814e+07
          2.633e+07 2.652e+07 2.65806e+07 2.65987e+07 2.66039e+07 2.66053e+07 2.66057e+07 2.66058e+07 2.66058e+07 2.66058e+07 2.66058e+07 2.66058e+07
          2.66058e+07 2.66058e+07 2.66058e+07 2.66058e+07 2.66058e+07 2.66058e+07 2.66058e+07 2.66058e+07 2.66058e+07 2.66058e+07 2.66058e+07 2.66058e+07
          2.66058e+07 2.66058e+07 2.66058e+07 2.66058e+07 2.66058e+07 2.66058e+07 2.66058e+07 2.66058e+07 2.66058e+07 2.66058e+07 2.66058e+07 2.66058e+07
          2.66058e+07 2.66059e+07 2.66061e+07 2.66068e+07 2.66095e+07 2.66188e+07 2.66482e+07 2.67368e+07 2.69643e+07 2.75286e+07 2.96126e+07 2.95578e+07
          2.75334e+07 2.6955e+07 2.67296e+07 2.66407e+07 2.66113e+07 2.66021e+07 2.65994e+07 2.65986e+07 2.65984e+07 2.65984e+07 2.65984e+07 2.65984e+07
          2.65983e+07 2.65983e+07 2.65983e+07 2.65983e+07 2.65983e+07 2.65983e+07 2.65983e+07 2.65983e+07 2.65983e+07 2.65983e+07 2.65983e+07 2.65983e+07
          2.65983e+07 2.65983e+07 2.65983e+07 2.65983e+07 2.65983e+07 2.65983e+07 2.65983e+07 2.65983e+07 2.65983e+07 2.65983e+07 2.65983e+07 2.65983e+07
          2.65983e+07 2.65983e+07 2.65983e+07 2.65982e+07 2.65978e+07 2.65964e+07 2.65913e+07 2.65731e+07 2.65125e+07 2.63226e+07 2.57741e+07 2.43112e+07
          2.05232e+07 1.33333e+07 2.05232e+07 2.43112e+07 2.57741e+07 2.63226e+07 2.65125e+07 2.65731e+07 2.65913e+07 2.65964e+07 2.65978e+07 2.65982e+07
          2.65983e+07 2.65983e+07 2.65983e+07 2.65983e+07 2.65983e+07 2.65983e+07 2.65983e+07 2.65983e+07 2.65983e+07 2.65983e+07 2.65983e+07 2.65983e+07
          2.65983e+07 2.65983e+07 2.65983e+07 2.65983e+07 2.65983e+07 2.65983e+07 2.65983e+07 2.65983e+07 2.65983e+07 2.65983e+07 2.65983e+07 2.65983e+07
          2.65983e+07 2.65983e+07 2.65983e+07 2.65984e+07 2.65984e+07 2.65984e+07 2.65984e+07 2.65986e+07 2.65994e+07 2.66021e+07 2.66113e+07 2.66407e+07
          2.67296e+07 2.6955e+07 2.75334e+07 2.95578e+07 2.95311e+07 2.75321e+07 2.69466e+07 2.67222e+07 2.66332e+07 2.66038e+07 2.65946e+07 2.65919e+07
          2.65912e+07 2.6591e+07 2.65909e+07 2.65909e+07 2.65909e+07 2.65909e+07 2.65909e+07 2.65909e+07 2.65909e+07 2.65909e+07 2.65909e+07 2.65909e+07
          2.65909e+07 2.65909e+07 2.65909e+07 2.65909e+07 2.65909e+07 2.65909e+07 2.65909e+07 2.65909e+07 2.65909e+07 2.65909e+07 2.65909e+07 2.65909e+07
          2.65909e+07 2.65909e+07 2.65909e+07 2.65909e+07 2.65909e+07 2.65909e+07 2.65909e+07 2.65908e+07 2.65908e+07 2.65904e+07 2.6589e+07 2.65838e+07
          2.65657e+07 2.65051e+07 2.63152e+07 2.57667e+07 2.43046e+07 2.0516e+07 1.33333e+07 2.0516e+07 2.43046e+07 2.57667e+07 2.63152e+07 2.65051e+07
          2.65657e+07 2.65838e+07 2.6589e+07 2.65904e+07 2.65908e+07 2.65908e+07 2.65909e+07 2.65909e+07 2.65909e+07 2.65909e+07 2.65909e+07 2.65909e+07
          2.65909e+07 2.65909e+07 2.65909e+07 2.65909e+07 2.65909e+07 2.65909e+07 2.65909e+07 2.65909e+07 2.65909e+07 2.65909e+07 2.65909e+07 2.65909e+07
          2.65909e+07 2.65909e+07 2.65909e+07 2.65909e+07 2.65909e+07 2.65909e+07 2.65909e+07 2.65909e+07 2.65909e+07 2.65909e+07 2.65909e+07 2.6591e+07
          2.65912e+07 2.65919e+07 2.65946e+07 2.66038e+07 2.66332e+07 2.67222e+07 2.69466e+07 2.75321e+07 2.95311e+07 2.95122e+07 2.75282e+07 2.69385e+07
          2.67147e+07 2.66257e+07 2.65964e+07 2.65871e+07 2.65844e+07 2.65837e+07 2.65835e+07 2.65834e+07 2.65834e+07 2.65834e+07 2.65834e+07 2.65834e+07
          2.65834e+07 2.65834e+07 2.65834e+07 2.65834e+07 2.65834e+07 2.65834e+07 2.65834e+07 2.65834e+07 2.65834e+07 2.65834e+07 2.65834e+07 2.65834e+07
          2.65834e+07 2.65834e+07 2.65834e+07 2.65834e+07 2.65834e+07 2.65834e+07 2.65834e+07 2.65834e+07 2.65834e+07 2.65834e+07 2.65834e+07 2.65834e+07
          2.65834e+07 2.65833e+07 2.65829e+07 2.65815e+07 2.65763e+07 2.65582e+07 2.64976e+07 2.63078e+07 2.57594e+07 2.42979e+07 2.0509e+07 1.33333e+07
          2.0509e+07 2.42979e+07 2.57594e+07 2.63078e+07 2.64976e+07 2.65582e+07 2.65763e+07 2.65815e+07 2.65829e+07 2.65833e+07 2.65834e+07 2.65834e+07
          2.65834e+07 2.65834e+07 2.65834e+07 2.65834e+07 2.65834e+07 2.65834e+07 2.65834e+07 2.65834e+07 2.65834e+07 2.65834e+07 2.65834e+07 2.65834e+07
          2.65834e+07 2.65834e+07 2.65834e+07 2.65834e+07 2.65834e+07 2.65834e+07 2.65834e+07 2.65834e+07 2.65834e+07 2.65834e+07 2.65834e+07 2.65834e+07
          2.65834e+07 2.65834e+07 2.65834e+07 2.65834e+07 2.65835e+07 2.65837e+07 2.65844e+07 2.65871e+07 2.65964e+07 2.66257e+07 2.67147e+07 2.69385e+07
          2.75282e+07 2.95122e+07 2.95001e+07 2.75218e+07 2.69308e+07 2.67072e+07 2.66182e+07 2.65889e+07 2.65797e+07 2.6577e+07 2.65762e+07 2.6576e+07
          2.6576e+07 2.6576e+07 2.6576e+07 2.6576e+07 2.6576e+07 2.6576e+07 2.6576e+07 2.6576e+07 2.6576e+07 2.6576e+07 2.6576e+07 2.6576e+07
          2.6576e+07 2.6576e+07 2.6576e+07 2.6576e+07 2.6576e+07 2.6576e+07 2.6576e+07 2.6576e+07 2.6576e+07 2.6576e+07 2.6576e+07 2.6576e+07
          2.6576e+07 2.6576e+07 2.6576e+07 2.6576e+07 2.65759e+07 2.65759e+07 2.65758e+07 2.65755e+07 2.6574e+07 2.65689e+07 2.65508e+07 2.64902e+07
          2.63004e+07 2.57521e+07 2.42911e+07 2.05024e+07 1.33333e+07 2.05024e+07 2.42911e+07 2.57521e+07 2.63004e+07 2.64902e+07 2.65508e+07 2.65689e+07
          2.6574e+07 2.65755e+07 2.65758e+07 2.65759e+07 2.65759e+07 2.6576e+07 2.6576e+07 2.6576e+07 2.6576e+07 2.6576e+07 2.6576e+07 2.6576e+07
          2.6576e+07 2.6576e+07 2.6576e+07 2.6576e+07 2.6576e+07 2.6576e+07 2.6576e+07 2.6576e+07 2.6576e+07 2.6576e+07 2.6576e+07 2.6576e+07
          2.6576e+07 2.6576e+07 2.6576e+07 2.6576e+07 2.6576e+07 2.6576e+07 2.6576e+07 2.6576e+07 2.6576e+07 2.6576e+07 2.65762e+07 2.6577e+07
          2.65797e+07 2.65889e+07 2.66182e+07 2.67072e+07 2.69308e+07 2.75218e+07 2.95001e+07
        </DataArray>
        <DataArray type="Float32" Name="pressure_w" NumberOfComponents="1" format="ascii">
          3e+07 2.75023e+07 3e+07 2.74936e+07 2.70207e+07 2.70133e+07 2.67802e+07 2.67726e+07 2.66934e+07 2.66859e+07 2.66636e+07 2.66561e+07
          2.66544e+07 2.66469e+07 2.66517e+07 2.66442e+07 2.6651e+07 2.66435e+07 2.66508e+07 2.66433e+07 2.66507e+07 2.66432e+07 2.66507e+07 2.66432e+07
          2.66507e+07 2.66432e+07 2.66507e+07 2.66432e+07 2.66507e+07 2.66432e+07 2.66507e+07 2.66432e+07 2.66507e+07 2.66432e+07 2.66507e+07 2.66432e+07
          2.66507e+07 2.66432e+07 2.66507e+07 2.66432e+07 2.66507e+07 2.66432e+07 2.66507e+07 2.66432e+07 2.66507e+07 2.66432e+07 2.66507e+07 2.66432e+07
          2.66507e+07 2.66432e+07 2.66507e+07 2.66432e+07 2.66507e+07 2.66432e+07 2.66507e+07 2.66432e+07 2.66507e+07 2.66432e+07 2.66507e+07 2.66432e+07
          2.66507e+07 2.66432e+07 2.66507e+07 2.66432e+07 2.66507e+07 2.66432e+07 2.66507e+07 2.66432e+07 2.66507e+07 2.66432e+07 2.66507e+07 2.66432e+07
          2.66507e+07 2.66432e+07 2.66507e+07 2.66432e+07 2.66507e+07 2.66432e+07 2.66507e+07 2.66432e+07 2.66506e+07 2.66431e+07 2.66502e+07 2.66427e+07
          2.66488e+07 2.66413e+07 2.66436e+07 2.66361e+07 2.66254e+07 2.66179e+07 2.65647e+07 2.65572e+07 2.63747e+07 2.63673e+07 2.58236e+07 2.58163e+07
          2.43691e+07 2.43619e+07 2.05055e+07 2.05012e+07 1.37417e+07 1.37279e+07 2.05055e+07 2.05012e+07 2.43691e+07 2.43619e+07 2.58236e+07 2.58163e+07
          2.63747e+07 2.63673e+07 2.65647e+07 2.65572e+07 2.66254e+07 2.66179e+07 2.66436e+07 2.66361e+07 2.66488e+07 2.66413e+07 2.66502e+07 2.66427e+07
          2.66506e+07 2.66431e+07 2.66507e+07 2.66432e+07 2.66507e+07 2.66432e+07 2.66507e+07 2.66432e+07 2.66507e+07 2.66432e+07 2.66507e+07 2.66432e+07
          2.66507e+07 2.66432e+07 2.66507e+07 2.66432e+07 2.66507e+07 2.66432e+07 2.66507e+07 2.66432e+07 2.66507e+07 2.66432e+07 2.66507e+07 2.66432e+07
          2.66507e+07 2.66432e+07 2.66507e+07 2.66432e+07 2.66507e+07 2.66432e+07 2.66507e+07 2.66432e+07 2.66507e+07 2.66432e+07 2.66507e+07 2.66432e+07
          2.66507e+07 2.66432e+07 2.66507e+07 2.66432e+07 2.66507e+07 2.66432e+07 2.66507e+07 2.66432e+07 2.66507e+07 2.66432e+07 2.66507e+07 2.66432e+07
          2.66507e+07 2.66432e+07 2.66507e+07 2.66432e+07 2.66507e+07 2.66432e+07 2.66507e+07 2.66432e+07 2.66507e+07 2.66432e+07 2.66507e+07 2.66432e+07
          2.66507e+07 2.66432e+07 2.66508e+07 2.66433e+07 2.6651e+07 2.66435e+07 2.66517e+07 2.66442e+07 2.66544e+07 2.66469e+07 2.66636e+07 2.66561e+07
          2.66934e+07 2.66859e+07 2.67802e+07 2.67726e+07 2.70207e+07 2.70133e+07 2.75023e+07 2.74936e+07 3e+07 3e+07 3e+07 2.74857e+07
          2.70059e+07 2.67651e+07 2.66784e+07 2.66486e+07 2.66394e+07 2.66367e+07 2.6636e+07 2.66358e+07 2.66357e+07 2.66357e+07 2.66357e+07 2.66357e+07
          2.66357e+07 2.66357e+07 2.66357e+07 2.66357e+07 2.66357e+07 2.66357e+07 2.66357e+07 2.66357e+07 2.66357e+07 2.66357e+07 2.66357e+07 2.66357e+07
          2.66357e+07 2.66357e+07 2.66357e+07 2.66357e+07 2.66357e+07 2.66357e+07 2.66357e+07 2.66357e+07 2.66357e+07 2.66357e+07 2.66357e+07 2.66357e+07
          2.66357e+07 2.66357e+07 2.66356e+07 2.66352e+07 2.66338e+07 2.66286e+07 2.66105e+07 2.65498e+07 2.63598e+07 2.58091e+07 2.43542e+07 2.05e+07
          1.36928e+07 2.05e+07 2.43542e+07 2.58091e+07 2.63598e+07 2.65498e+07 2.66105e+07 2.66286e+07 2.66338e+07 2.66352e+07 2.66356e+07 2.66357e+07
          2.66357e+07 2.66357e+07 2.66357e+07 2.66357e+07 2.66357e+07 2.66357e+07 2.66357e+07 2.66357e+07 2.66357e+07 2.66357e+07 2.66357e+07 2.66357e+07
          2.66357e+07 2.66357e+07 2.66357e+07 2.66357e+07 2.66357e+07 2.66357e+07 2.66357e+07 2.66357e+07 2.66357e+07 2.66357e+07 2.66357e+07 2.66357e+07
          2.66357e+07 2.66357e+07 2.66357e+07 2.66357e+07 2.66357e+07 2.66358e+07 2.6636e+07 2.66367e+07 2.66394e+07 2.66486e+07 2.66784e+07 2.67651e+07
          2.70059e+07 2.74857e+07 3e+07 3e+07 2.74786e+07 2.69985e+07 2.67575e+07 2.66709e+07 2.66411e+07 2.6632e+07 2.66293e+07 2.66285e+07
          2.66283e+07 2.66283e+07 2.66282e+07 2.66282e+07 2.66282e+07 2.66282e+07 2.66282e+07 2.66282e+07 2.66282e+07 2.66282e+07 2.66282e+07 2.66282e+07
          2.66282e+07 2.66282e+07 2.66282e+07 2.66282e+07 2.66282e+07 2.66282e+07 2.66282e+07 2.66282e+07 2.66282e+07 2.66282e+07 2.66282e+07 2.66282e+07
          2.66282e+07 2.66282e+07 2.66282e+07 2.66282e+07 2.66282e+07 2.66282e+07 2.66282e+07 2.66281e+07 2.66277e+07 2.66263e+07 2.66212e+07 2.6603e+07
          2.65423e+07 2.63524e+07 2.5802e+07 2.4346e+07 2.05023e+07 1.3636e+07 2.05023e+07 2.4346e+07 2.5802e+07 2.63524e+07 2.65423e+07 2.6603e+07
          2.66212e+07 2.66263e+07 2.66277e+07 2.66281e+07 2.66282e+07 2.66282e+07 2.66282e+07 2.66282e+07 2.66282e+07 2.66282e+07 2.66282e+07 2.66282e+07
          2.66282e+07 2.66282e+07 2.66282e+07 2.66282e+07 2.66282e+07 2.66282e+07 2.66282e+07 2.66282e+07 2.66282e+07 2.66282e+07 2.66282e+07 2.66282e+07
          2.66282e+07 2.66282e+07 2.66282e+07 2.66282e+07 2.66282e+07 2.66282e+07 2.66282e+07 2.66282e+07 2.66282e+07 2.66283e+07 2.66283e+07 2.66285e+07
          2.66293e+07 2.6632e+07 2.66411e+07 2.66709e+07 2.67575e+07 2.69985e+07 2.74786e+07 3e+07 3e+07 2.74723e+07 2.6991e+07 2.67499e+07
          2.66635e+07 2.66337e+07 2.66245e+07 2.66218e+07 2.6621e+07 2.66208e+07 2.66208e+07 2.66208e+07 2.66208e+07 2.66208e+07 2.66208e+07 2.66208e+07
          2.66208e+07 2.66208e+07 2.66208e+07 2.66208e+07 2.66208e+07 2.66208e+07 2.66208e+07 2.66208e+07 2.66208e+07 2.66208e+07 2.66208e+07 2.66208e+07
          2.66208e+07 2.66208e+07 2.66208e+07 2.66208e+07 2.66208e+07 2.66208e+07 2.66208e+07 2.66208e+07 2.66208e+07 2.66208e+07 2.66208e+07 2.66207e+07
          2.66206e+07 2.66203e+07 2.66188e+07 2.66137e+07 2.65955e+07 2.65349e+07 2.63449e+07 2.57951e+07 2.43372e+07 2.0508e+07 1.35574e+07 2.0508e+07
          2.43372e+07 2.57951e+07 2.63449e+07 2.65349e+07 2.65955e+07 2.66137e+07 2.66188e+07 2.66203e+07 2.66206e+07 2.66207e+07 2.66208e+07 2.66208e+07
          2.66208e+07 2.66208e+07 2.66208e+07 2.66208e+07 2.66208e+07 2.66208e+07 2.66208e+07 2.66208e+07 2.66208e+07 2.66208e+07 2.66208e+07 2.66208e+07
          2.66208e+07 2.66208e+07 2.66208e+07 2.66208e+07 2.66208e+07 2.66208e+07 2.66208e+07 2.66208e+07 2.66208e+07 2.66208e+07 2.66208e+07 2.66208e+07
          2.66208e+07 2.66208e+07 2.66208e+07 2.66208e+07 2.6621e+07 2.66218e+07 2.66245e+07 2.66337e+07 2.66635e+07 2.67499e+07 2.6991e+07 2.74723e+07
          3e+07 2.97885e+07 2.75031e+07 2.69772e+07 2.67434e+07 2.66558e+07 2.66262e+07 2.6617e+07 2.66143e+07 2.66136e+07 2.66134e+07 2.66133e+07
          2.66133e+07 2.66133e+07 2.66133e+07 2.66133e+07 2.66133e+07 2.66133e+07 2.66133e+07 2.66133e+07 2.66133e+07 2.66133e+07 2.66133e+07 2.66133e+07
          2.66133e+07 2.66133e+07 2.66133e+07 2.66133e+07 2.66133e+07 2.66133e+07 2.66133e+07 2.66133e+07 2.66133e+07 2.66133e+07 2.66133e+07 2.66133e+07
          2.66133e+07 2.66133e+07 2.66133e+07 2.66133e+07 2.66133e+07 2.66132e+07 2.66128e+07 2.66114e+07 2.66062e+07 2.65881e+07 2.65274e+07 2.63375e+07
          2.57882e+07 2.43278e+07 2.05174e+07 1.34566e+07 2.05174e+07 2.43278e+07 2.57882e+07 2.63375e+07 2.65274e+07 2.65881e+07 2.66062e+07 2.66114e+07
          2.66128e+07 2.66132e+07 2.66133e+07 2.66133e+07 2.66133e+07 2.66133e+07 2.66133e+07 2.66133e+07 2.66133e+07 2.66133e+07 2.66133e+07 2.66133e+07
          2.66133e+07 2.66133e+07 2.66133e+07 2.66133e+07 2.66133e+07 2.66133e+07 2.66133e+07 2.66133e+07 2.66133e+07 2.66133e+07 2.66133e+07 2.66133e+07
          2.66133e+07 2.66133e+07 2.66133e+07 2.66133e+07 2.66133e+07 2.66133e+07 2.66133e+07 2.66133e+07 2.66134e+07 2.66136e+07 2.66143e+07 2.6617e+07
          2.66262e+07 2.66558e+07 2.67434e+07 2.69772e+07 2.75031e+07 2.97885e+07 2.96126e+07 2.75286e+07 2.69643e+07 2.67368e+07 2.66482e+07 2.66188e+07
          2.66095e+07 2.66068e+07 2.66061e+07 2.66059e+07 2.66058e+07 2.66058e+07 2.66058e+07 2.66058e+07 2.66058e+07 2.66058e+07 2.66058e+07 2.66058e+07
          2.66058e+07 2.66058e+07 2.66058e+07 2.66058e+07 2.66058e+07 2.66058e+07 2.66058e+07 2.66058e+07 2.66058e+07 2.66058e+07 2.66058e+07 2.66058e+07
          2.66058e+07 2.66058e+07 2.66058e+07 2.66058e+07 2.66058e+07 2.66058e+07 2.66058e+07 2.66058e+07 2.66058e+07 2.66058e+07 2.66057e+07 2.66053e+07
          2.66039e+07 2.65987e+07 2.65806e+07 2.652e+07 2.633e+07 2.57814e+07 2.43177e+07 2.05307e+07 1.33333e+07 2.05307e+07 2.43177e+07 2.57814e+07
          2.633e+07 2.652e+07 2.65806e+07 2.65987e+07 2.66039e+07 2.66053e+07 2.66057e+07 2.66058e+07 2.66058e+07 2.66058e+07 2.66058e+07 2.66058e+07
          2.66058e+07 2.66058e+07 2.66058e+07 2.66058e+07 2.66058e+07 2.66058e+07 2.66058e+07 2.66058e+07 2.66058e+07 2.66058e+07 2.66058e+07 2.66058e+07
          2.66058e+07 2.66058e+07 2.66058e+07 2.66058e+07 2.66058e+07 2.66058e+07 2.66058e+07 2.66058e+07 2.66058e+07 2.66058e+07 2.66058e+07 2.66058e+07
          2.66058e+07 2.66059e+07 2.66061e+07 2.66068e+07 2.66095e+07 2.66188e+07 2.66482e+07 2.67368e+07 2.69643e+07 2.75286e+07 2.96126e+07 2.95578e+07
          2.75334e+07 2.6955e+07 2.67296e+07 2.66407e+07 2.66113e+07 2.66021e+07 2.65994e+07 2.65986e+07 2.65984e+07 2.65984e+07 2.65984e+07 2.65984e+07
          2.65983e+07 2.65983e+07 2.65983e+07 2.65983e+07 2.65983e+07 2.65983e+07 2.65983e+07 2.65983e+07 2.65983e+07 2.65983e+07 2.65983e+07 2.65983e+07
          2.65983e+07 2.65983e+07 2.65983e+07 2.65983e+07 2.65983e+07 2.65983e+07 2.65983e+07 2.65983e+07 2.65983e+07 2.65983e+07 2.65983e+07 2.65983e+07
          2.65983e+07 2.65983e+07 2.65983e+07 2.65982e+07 2.65978e+07 2.65964e+07 2.65913e+07 2.65731e+07 2.65125e+07 2.63226e+07 2.57741e+07 2.43112e+07
          2.05232e+07 1.33333e+07 2.05232e+07 2.43112e+07 2.57741e+07 2.63226e+07 2.65125e+07 2.65731e+07 2.65913e+07 2.65964e+07 2.65978e+07 2.65982e+07
          2.65983e+07 2.65983e+07 2.65983e+07 2.65983e+07 2.65983e+07 2.65983e+07 2.65983e+07 2.65983e+07 2.65983e+07 2.65983e+07 2.65983e+07 2.65983e+07
          2.65983e+07 2.65983e+07 2.65983e+07 2.65983e+07 2.65983e+07 2.65983e+07 2.65983e+07 2.65983e+07 2.65983e+07 2.65983e+07 2.65983e+07 2.65983e+07
          2.65983e+07 2.65983e+07 2.65983e+07 2.65984e+07 2.65984e+07 2.65984e+07 2.65984e+07 2.65986e+07 2.65994e+07 2.66021e+07 2.66113e+07 2.66407e+07
          2.67296e+07 2.6955e+07 2.75334e+07 2.95578e+07 2.95311e+07 2.75321e+07 2.69466e+07 2.67222e+07 2.66332e+07 2.66038e+07 2.65946e+07 2.65919e+07
          2.65912e+07 2.6591e+07 2.65909e+07 2.65909e+07 2.65909e+07 2.65909e+07 2.65909e+07 2.65909e+07 2.65909e+07 2.65909e+07 2.65909e+07 2.65909e+07
          2.65909e+07 2.65909e+07 2.65909e+07 2.65909e+07 2.65909e+07 2.65909e+07 2.65909e+07 2.65909e+07 2.65909e+07 2.65909e+07 2.65909e+07 2.65909e+07
          2.65909e+07 2.65909e+07 2.65909e+07 2.65909e+07 2.65909e+07 2.65909e+07 2.65909e+07 2.65908e+07 2.65908e+07 2.65904e+07 2.6589e+07 2.65838e+07
          2.65657e+07 2.65051e+07 2.63152e+07 2.57667e+07 2.43046e+07 2.0516e+07 1.33333e+07 2.0516e+07 2.43046e+07 2.57667e+07 2.63152e+07 2.65051e+07
          2.65657e+07 2.65838e+07 2.6589e+07 2.65904e+07 2.65908e+07 2.65908e+07 2.65909e+07 2.65909e+07 2.65909e+07 2.65909e+07 2.65909e+07 2.65909e+07
          2.65909e+07 2.65909e+07 2.65909e+07 2.65909e+07 2.65909e+07 2.65909e+07 2.65909e+07 2.65909e+07 2.65909e+07 2.65909e+07 2.65909e+07 2.65909e+07
          2.65909e+07 2.65909e+07 2.65909e+07 2.65909e+07 2.65909e+07 2.65909e+07 2.65909e+07 2.65909e+07 2.65909e+07 2.65909e+07 2.65909e+07 2.6591e+07
          2.65912e+07 2.65919e+07 2.65946e+07 2.66038e+07 2.66332e+07 2.67222e+07 2.69466e+07 2.75321e+07 2.95311e+07 2.95122e+07 2.75282e+07 2.69385e+07
          2.67147e+07 2.66257e+07 2.65964e+07 2.65871e+07 2.65844e+07 2.65837e+07 2.65835e+07 2.65834e+07 2.65834e+07 2.65834e+07 2.65834e+07 2.65834e+07
          2.65834e+07 2.65834e+07 2.65834e+07 2.65834e+07 2.65834e+07 2.65834e+07 2.65834e+07 2.65834e+07 2.65834e+07 2.65834e+07 2.65834e+07 2.65834e+07
          2.65834e+07 2.65834e+07 2.65834e+07 2.65834e+07 2.65834e+07 2.65834e+07 2.65834e+07 2.65834e+07 2.65834e+07 2.65834e+07 2.65834e+07 2.65834e+07
          2.65834e+07 2.65833e+07 2.65829e+07 2.65815e+07 2.65763e+07 2.65582e+07 2.64976e+07 2.63078e+07 2.57594e+07 2.42979e+07 2.0509e+07 1.33333e+07
          2.0509e+07 2.42979e+07 2.57594e+07 2.63078e+07 2.64976e+07 2.65582e+07 2.65763e+07 2.65815e+07 2.65829e+07 2.65833e+07 2.65834e+07 2.65834e+07
          2.65834e+07 2.65834e+07 2.65834e+07 2.65834e+07 2.65834e+07 2.65834e+07 2.65834e+07 2.65834e+07 2.65834e+07 2.65834e+07 2.65834e+07 2.65834e+07
          2.65834e+07 2.65834e+07 2.65834e+07 2.65834e+07 2.65834e+07 2.65834e+07 2.65834e+07 2.65834e+07 2.65834e+07 2.65834e+07 2.65834e+07 2.65834e+07
          2.65834e+07 2.65834e+07 2.65834e+07 2.65834e+07 2.65835e+07 2.65837e+07 2.65844e+07 2.65871e+07 2.65964e+07 2.66257e+07 2.67147e+07 2.69385e+07
          2.75282e+07 2.95122e+07 2.95001e+07 2.75218e+07 2.69308e+07 2.67072e+07 2.66182e+07 2.65889e+07 2.65797e+07 2.6577e+07 2.65762e+07 2.6576e+07
          2.6576e+07 2.6576e+07 2.6576e+07 2.6576e+07 2.6576e+07 2.6576e+07 2.6576e+07 2.6576e+07 2.6576e+07 2.6576e+07 2.6576e+07 2.6576e+07
          2.6576e+07 2.6576e+07 2.6576e+07 2.6576e+07 2.6576e+07 2.6576e+07 2.6576e+07 2.6576e+07 2.6576e+07 2.6576e+07 2.6576e+07 2.6576e+07
          2.6576e+07 2.6576e+07 2.6576e+07 2.6576e+07 2.65759e+07 2.65759e+07 2.65758e+07 2.65755e+07 2.6574e+07 2.65689e+07 2.65508e+07 2.64902e+07
          2.63004e+07 2.57521e+07 2.42911e+07 2.05024e+07 1.33333e+07 2.05024e+07 2.42911e+07 2.57521e+07 2.63004e+07 2.64902e+07 2.65508e+07 2.65689e+07
          2.6574e+07 2.65755e+07 2.65758e+07 2.65759e+07 2.65759e+07 2.6576e+07 2.6576e+07 2.6576e+07 2.6576e+07 2.6576e+07 2.6576e+07 2.6576e+07
          2.6576e+07 2.6576e+07 2.6576e+07 2.6576e+07 2.6576e+07 2.6576e+07 2.6576e+07 2.6576e+07 2.6576e+07 2.6576e+07 2.6576e+07 2.6576e+07
          2.6576e+07 2.6576e+07 2.6576e+07 2.6576e+07 2.6576e+07 2.6576e+07 2.6576e+07 2.6576e+07 2.6576e+07 2.6576e+07 2.65762e+07 2.6577e+07
          2.65797e+07 2.65889e+07 2.66182e+07 2.67072e+07 2.69308e+07 2.75218e+07 2.95001e+07
        </DataArray>
        <DataArray type="Float32" Name="pressure_g" NumberOfComponents="1" format="ascii">
          3e+07 2.75023e+07 3e+07 2.74936e+07 2.70207e+07 2.70133e+07 2.67802e+07 2.67726e+07 2.66934e+07 2.66859e+07 2.66636e+07 2.66561e+07
          2.66544e+07 2.66469e+07 2.66517e+07 2.66442e+07 2.6651e+07 2.66435e+07 2.66508e+07 2.66433e+07 2.66507e+07 2.66432e+07 2.66507e+07 2.66432e+07
          2.66507e+07 2.66432e+07 2.66507e+07 2.66432e+07 2.66507e+07 2.66432e+07 2.66507e+07 2.66432e+07 2.66507e+07 2.66432e+07 2.66507e+07 2.66432e+07
          2.66507e+07 2.66432e+07 2.66507e+07 2.66432e+07 2.66507e+07 2.66432e+07 2.66507e+07 2.66432e+07 2.66507e+07 2.66432e+07 2.66507e+07 2.66432e+07
          2.66507e+07 2.66432e+07 2.66507e+07 2.66432e+07 2.66507e+07 2.66432e+07 2.66507e+07 2.66432e+07 2.66507e+07 2.66432e+07 2.66507e+07 2.66432e+07
          2.66507e+07 2.66432e+07 2.66507e+07 2.66432e+07 2.66507e+07 2.66432e+07 2.66507e+07 2.66432e+07 2.66507e+07 2.66432e+07 2.66507e+07 2.66432e+07
          2.66507e+07 2.66432e+07 2.66507e+07 2.66432e+07 2.66507e+07 2.66432e+07 2.66507e+07 2.66432e+07 2.66506e+07 2.66431e+07 2.66502e+07 2.66427e+07
          2.66488e+07 2.66413e+07 2.66436e+07 2.66361e+07 2.66254e+07 2.66179e+07 2.65647e+07 2.65572e+07 2.63747e+07 2.63673e+07 2.58236e+07 2.58163e+07