<?xml version="1.0"?>
<VTKFile type="UnstructuredGrid" version="0.1" byte_order="LittleEndian">
  <UnstructuredGrid>
    <Piece NumberOfCells="1000" NumberOfPoints="1111">
      <PointData Scalars="pressure_water">
        <DataArray type="Float32" Name="pressure_water" NumberOfComponents="1" format="ascii">
          4.95e+07 4.85505e+07 4.95e+07 4.85402e+07 4.76299e+07 4.76196e+07 4.68728e+07 4.68625e+07 4.62657e+07 4.62581e+07 4.57249e+07 4.57191e+07
          4.52038e+07 4.5198e+07 4.4687e+07 4.46812e+07 4.41711e+07 4.41653e+07 4.36553e+07 4.36495e+07 4.31395e+07 4.31337e+07 4.26236e+07 4.26178e+07
          4.21077e+07 4.21018e+07 4.15916e+07 4.15858e+07 4.10756e+07 4.10697e+07 4.05594e+07 4.05536e+07 4.00432e+07 4.00374e+07 3.95269e+07 3.95211e+07
          3.90106e+07 3.90047e+07 3.84941e+07 3.84883e+07 3.79777e+07 3.79718e+07 3.74611e+07 3.74553e+07 3.69445e+07 3.69387e+07 3.64278e+07 3.6422e+07
          3.59111e+07 3.59053e+07 3.53943e+07 3.53885e+07 3.48774e+07 3.48716e+07 3.43605e+07 3.43547e+07 3.38435e+07 3.38377e+07 3.33265e+07 3.33206e+07
          3.28093e+07 3.28035e+07 3.22922e+07 3.22864e+07 3.17749e+07 3.17691e+07 3.12576e+07 3.12518e+07 3.07403e+07 3.07345e+07 3.02229e+07 3.02171e+07
          2.97054e+07 2.96996e+07 2.91879e+07 2.91821e+07 2.86697e+07 2.86638e+07 2.81491e+07 2.81433e+07 2.76241e+07 2.76183e+07 2.70934e+07 2.70876e+07
          2.65565e+07 2.65506e+07 2.60131e+07 2.60072e+07 2.54633e+07 2.54574e+07 2.49072e+07 2.49013e+07 2.4345e+07 2.43391e+07 2.3777e+07 2.37712e+07
          2.32038e+07 2.31979e+07 2.26259e+07 2.262e+07 2.20471e+07 2.20409e+07 2.20474e+07 2.20411e+07 2.26374e+07 2.26315e+07 2.32261e+07 2.32202e+07
          2.38096e+07 2.38038e+07 2.43876e+07 2.43817e+07 2.49593e+07 2.49535e+07 2.55247e+07 2.55188e+07 2.60835e+07 2.60776e+07 2.66356e+07 2.66298e+07
          2.71811e+07 2.71753e+07 2.77202e+07 2.77144e+07 2.82537e+07 2.82478e+07 2.87832e+07 2.87774e+07 2.93109e+07 2.93051e+07 2.98382e+07 2.98324e+07
          3.03655e+07 3.03597e+07 3.08927e+07 3.08869e+07 3.14199e+07 3.14141e+07 3.1947e+07 3.19412e+07 3.2474e+07 3.24682e+07 3.3001e+07 3.29952e+07
          3.35279e+07 3.35221e+07 3.40547e+07 3.40489e+07 3.45815e+07 3.45757e+07 3.51082e+07 3.51024e+07 3.56349e+07 3.56291e+07 3.61615e+07 3.61556e+07
          3.6688e+07 3.66821e+07 3.72144e+07 3.72086e+07 3.77408e+07 3.7735e+07 3.82671e+07 3.82613e+07 3.87933e+07 3.87875e+07 3.93195e+07 3.93137e+07
          3.98456e+07 3.98398e+07 4.03717e+07 4.03658e+07 4.08976e+07 4.08918e+07 4.14235e+07 4.14177e+07 4.19494e+07 4.19435e+07 4.24751e+07 4.24693e+07
          4.30008e+07 4.2995e+07 4.35265e+07 4.35206e+07 4.40521e+07 4.40462e+07 4.45778e+07 4.4572e+07 4.51046e+07 4.50988e+07 4.56361e+07 4.56303e+07
          4.61891e+07 4.61813e+07 4.68123e+07 4.6802e+07 4.75905e+07 4.75802e+07 4.85316e+07 4.85214e+07 4.95e+07 4.95e+07 4.95e+07 4.85299e+07
          4.76091e+07 4.68538e+07 4.62522e+07 4.57133e+07 4.51922e+07 4.46754e+07 4.41594e+07 4.36436e+07 4.31278e+07 4.26119e+07 4.2096e+07 4.158e+07
          4.10639e+07 4.05478e+07 4.00315e+07 3.95153e+07 3.89989e+07 3.84825e+07 3.7966e+07 3.74495e+07 3.69329e+07 3.64162e+07 3.58995e+07 3.53827e+07
          3.48658e+07 3.43489e+07 3.38319e+07 3.33148e+07 3.27977e+07 3.22805e+07 3.17633e+07 3.1246e+07 3.07287e+07 3.02113e+07 2.96938e+07 2.91763e+07
          2.8658e+07 2.81374e+07 2.76125e+07 2.70817e+07 2.65448e+07 2.60014e+07 2.54516e+07 2.48955e+07 2.43332e+07 2.37653e+07 2.31919e+07 2.2614e+07
          2.2034e+07 2.20342e+07 2.26256e+07 2.32143e+07 2.37979e+07 2.43758e+07 2.49476e+07 2.5513e+07 2.60718e+07 2.66239e+07 2.71694e+07 2.77086e+07
          2.8242e+07 2.87715e+07 2.92992e+07 2.98266e+07 3.03539e+07 3.08811e+07 3.14082e+07 3.19353e+07 3.24624e+07 3.29893e+07 3.35163e+07 3.40431e+07
          3.45699e+07 3.50966e+07 3.56232e+07 3.61498e+07 3.66763e+07 3.72028e+07 3.77291e+07 3.82555e+07 3.87817e+07 3.93079e+07 3.9834e+07 4.036e+07
          4.0886e+07 4.14119e+07 4.19377e+07 4.24635e+07 4.29892e+07 4.35148e+07 4.40404e+07 4.45662e+07 4.5093e+07 4.56245e+07 4.61754e+07 4.6793e+07
          4.75697e+07 4.85111e+07 4.95e+07 4.95e+07 4.85196e+07 4.75988e+07 4.68468e+07 4.62464e+07 4.57076e+07 4.51864e+07 4.46695e+07 4.41536e+07
          4.36378e+07 4.3122e+07 4.26061e+07 4.20902e+07 4.15742e+07 4.10581e+07 4.05419e+07 4.00257e+07 3.95094e+07 3.89931e+07 3.84767e+07 3.79602e+07
          3.74437e+07 3.6927e+07 3.64104e+07 3.58936e+07 3.53768e+07 3.486e+07 3.4343e+07 3.38261e+07 3.3309e+07 3.27919e+07 3.22747e+07 3.17575e+07
          3.12402e+07 3.07228e+07 3.02054e+07 2.9688e+07 2.91705e+07 2.86522e+07 2.81316e+07 2.76066e+07 2.70759e+07 2.65389e+07 2.59955e+07 2.54457e+07
          2.48896e+07 2.43274e+07 2.37594e+07 2.3186e+07 2.26081e+07 2.20265e+07 2.20266e+07 2.26196e+07 2.32084e+07 2.3792e+07 2.43699e+07 2.49417e+07
          2.55071e+07 2.60659e+07 2.66181e+07 2.71636e+07 2.77027e+07 2.82362e+07 2.87657e+07 2.92934e+07 2.98208e+07 3.0348e+07 3.08753e+07 3.14024e+07
          3.19295e+07 3.24566e+07 3.29835e+07 3.35104e+07 3.40373e+07 3.45641e+07 3.50908e+07 3.56174e+07 3.6144e+07 3.66705e+07 3.71969e+07 3.77233e+07
          3.82496e+07 3.87759e+07 3.93021e+07 3.98282e+07 4.03542e+07 4.08802e+07 4.14061e+07 4.19319e+07 4.24576e+07 4.29833e+07 4.3509e+07 4.40346e+07
          4.45604e+07 4.50872e+07 4.56187e+07 4.61696e+07 4.67859e+07 4.75593e+07 4.85007e+07 4.95e+07 4.95e+07 4.85092e+07 4.75887e+07 4.68403e+07
          4.62407e+07 4.57018e+07 4.51806e+07 4.46637e+07 4.41478e+07 4.3632e+07 4.31162e+07 4.26003e+07 4.20844e+07 4.15683e+07 4.10523e+07 4.05361e+07
          4.00199e+07 3.95036e+07 3.89873e+07 3.84709e+07 3.79544e+07 3.74378e+07 3.69212e+07 3.64045e+07 3.58878e+07 3.5371e+07 3.48541e+07 3.43372e+07
          3.38202e+07 3.33032e+07 3.27861e+07 3.22689e+07 3.17517e+07 3.12344e+07 3.0717e+07 3.01996e+07 2.96822e+07 2.91647e+07 2.86464e+07 2.81258e+07
          2.76008e+07 2.707e+07 2.6533e+07 2.59896e+07 2.54398e+07 2.48837e+07 2.43215e+07 2.37535e+07 2.31801e+07 2.26022e+07 2.20183e+07 2.20184e+07
          2.26137e+07 2.32024e+07 2.37861e+07 2.4364e+07 2.49358e+07 2.55012e+07 2.606e+07 2.66122e+07 2.71577e+07 2.76969e+07 2.82304e+07 2.87599e+07
          2.92876e+07 2.98149e+07 3.03422e+07 3.08694e+07 3.13966e+07 3.19237e+07 3.24507e+07 3.29777e+07 3.35046e+07 3.40315e+07 3.45582e+07 3.50849e+07
          3.56116e+07 3.61382e+07 3.66647e+07 3.71911e+07 3.77175e+07 3.82438e+07 3.87701e+07 3.92962e+07 3.98223e+07 4.03484e+07 4.08743e+07 4.14002e+07
          4.19261e+07 4.24518e+07 4.29775e+07 4.35031e+07 4.40288e+07 4.45545e+07 4.50814e+07 4.5613e+07 4.61638e+07 4.67794e+07 4.75492e+07 4.84903e+07
          4.95e+07 4.95e+07 4.84987e+07 4.75793e+07 4.68341e+07 4.6235e+07 4.56961e+07 4.51748e+07 4.46579e+07 4.4142e+07 4.36262e+07 4.31103e+07
          4.25945e+07 4.20785e+07 4.15625e+07 4.10464e+07 4.05303e+07 4.00141e+07 3.94978e+07 3.89814e+07 3.8465e+07 3.79486e+07 3.7432e+07 3.69154e+07
          3.63987e+07 3.5882e+07 3.53652e+07 3.48483e+07 3.43314e+07 3.38144e+07 3.32974e+07 3.27803e+07 3.22631e+07 3.17459e+07 3.12286e+07 3.07112e+07
          3.01938e+07 2.96764e+07 2.91588e+07 2.86406e+07 2.812e+07 2.7595e+07 2.70642e+07 2.65272e+07 2.59838e+07 2.5434e+07 2.48778e+07 2.43156e+07
          2.37476e+07 2.31742e+07 2.25963e+07 2.20094e+07 2.20095e+07 2.26078e+07 2.31965e+07 2.37802e+07 2.43581e+07 2.49299e+07 2.54953e+07 2.60542e+07
          2.66064e+07 2.71519e+07 2.76911e+07 2.82246e+07 2.87541e+07 2.92818e+07 2.98091e+07 3.03364e+07 3.08636e+07 3.13908e+07 3.19179e+07 3.24449e+07
          3.29719e+07 3.34988e+07 3.40256e+07 3.45524e+07 3.50791e+07 3.56058e+07 3.61323e+07 3.66589e+07 3.71853e+07 3.77117e+07 3.8238e+07 3.87642e+07
          3.92904e+07 3.98165e+07 4.03425e+07 4.08685e+07 4.13944e+07 4.19202e+07 4.2446e+07 4.29717e+07 4.34973e+07 4.40229e+07 4.45487e+07 4.50756e+07
          4.56072e+07 4.61581e+07 4.67731e+07 4.75396e+07 4.84799e+07 4.95e+07 4.94799e+07 4.84883e+07 4.75706e+07 4.68281e+07 4.62293e+07 4.56903e+07
          4.5169e+07 4.46521e+07 4.41361e+07 4.36203e+07 4.31045e+07 4.25886e+07 4.20727e+07 4.15567e+07 4.10406e+07 4.05245e+07 4.00082e+07 3.9492e+07
          3.89756e+07 3.84592e+07 3.79427e+07 3.74262e+07 3.69096e+07 3.63929e+07 3.58762e+07 3.53594e+07 3.48425e+07 3.43256e+07 3.38086e+07 3.32915e+07
          3.27744e+07 3.22573e+07 3.174e+07 3.12227e+07 3.07054e+07 3.0188e+07 2.96705e+07 2.9153e+07 2.86348e+07 2.81142e+07 2.75891e+07 2.70583e+07
          2.65213e+07 2.59779e+07 2.54281e+07 2.48719e+07 2.43097e+07 2.37417e+07 2.31683e+07 2.25904e+07 2.2e+07 2.2e+07 2.26019e+07 2.31906e+07
          2.37743e+07 2.43522e+07 2.4924e+07 2.54895e+07 2.60483e+07 2.66005e+07 2.71461e+07 2.76852e+07 2.82187e+07 2.87483e+07 2.9276e+07 2.98033e+07
          3.03306e+07 3.08578e+07 3.1385e+07 3.19121e+07 3.24391e+07 3.29661e+07 3.3493e+07 3.40198e+07 3.45466e+07 3.50733e+07 3.56e+07 3.61265e+07
          3.6653e+07 3.71795e+07 3.77059e+07 3.82322e+07 3.87584e+07 3.92846e+07 3.98107e+07 4.03367e+07 4.08627e+07 4.13886e+07 4.19144e+07 4.24402e+07
          4.29659e+07 4.34915e+07 4.40171e+07 4.45429e+07 4.50697e+07 4.56015e+07 4.61525e+07 4.6767e+07 4.75307e+07 4.84694e+07 4.94797e+07 4.94621e+07
          4.84778e+07 4.75625e+07 4.68223e+07 4.62236e+07 4.56845e+07 4.51632e+07 4.46462e+07 4.41303e+07 4.36145e+07 4.30987e+07 4.25828e+07 4.20669e+07
          4.15509e+07 4.10348e+07 4.05186e+07 4.00024e+07 3.94861e+07 3.89698e+07 3.84534e+07 3.79369e+07 3.74204e+07 3.69038e+07 3.63871e+07 3.58704e+07
          3.53536e+07 3.48367e+07 3.43198e+07 3.38028e+07 3.32857e+07 3.27686e+07 3.22514e+07 3.17342e+07 3.12169e+07 3.06996e+07 3.01822e+07 2.96647e+07
          2.91472e+07 2.86289e+07 2.81083e+07 2.75833e+07 2.70525e+07 2.65155e+07 2.5972e+07 2.54222e+07 2.4866e+07 2.43038e+07 2.37358e+07 2.31624e+07
          2.25845e+07 2.2e+07 2.2e+07 2.2596e+07 2.31847e+07 2.37684e+07 2.43463e+07 2.49182e+07 2.54836e+07 2.60424e+07 2.65946e+07 2.71402e+07
          2.76794e+07 2.82129e+07 2.87425e+07 2.92702e+07 2.97975e+07 3.03248e+07 3.0852e+07 3.13792e+07 3.19063e+07 3.24333e+07 3.29603e+07 3.34872e+07
          3.4014e+07 3.45408e+07 3.50675e+07 3.55941e+07 3.61207e+07 3.66472e+07 3.71737e+07 3.77e+07 3.82263e+07 3.87526e+07 3.92788e+07 3.98049e+07
          4.03309e+07 4.08569e+07 4.13828e+07 4.19086e+07 4.24343e+07 4.296e+07 4.34857e+07 4.40113e+07 4.45371e+07 4.50639e+07 4.55957e+07 4.61468e+07
          4.67612e+07 4.75225e+07 4.8459e+07 4.94617e+07 4.94464e+07 4.84674e+07 4.75554e+07 4.68165e+07 4.62179e+07 4.56787e+07 4.51573e+07 4.46404e+07
          4.41245e+07 4.36087e+07 4.30929e+07 4.2577e+07 4.2061e+07 4.1545e+07 4.1029e+07 4.05128e+07 3.99966e+07 3.94803e+07 3.8964e+07 3.84476e+07
          3.79311e+07 3.74145e+07 3.68979e+07 3.63813e+07 3.58645e+07 3.53477e+07 3.48309e+07 3.43139e+07 3.3797e+07 3.32799e+07 3.27628e+07 3.22456e+07
          3.17284e+07 3.12111e+07 3.06938e+07 3.01764e+07 2.96589e+07 2.91414e+07 2.86231e+07 2.81025e+07 2.75774e+07 2.70467e+07 2.65096e+07 2.59662e+07
          2.54163e+07 2.48602e+07 2.42979e+07 2.37299e+07 2.31565e+07 2.25786e+07 2.2e+07 2.2e+07 2.25901e+07 2.31788e+07 2.37625e+07 2.43404e+07
          2.49123e+07 2.54777e+07 2.60366e+07 2.65888e+07 2.71344e+07 2.76736e+07 2.82071e+07 2.87366e+07 2.92643e+07 2.97917e+07 3.0319e+07 3.08462e+07
          3.13733e+07 3.19004e+07 3.24275e+07 3.29544e+07 3.34813e+07 3.40082e+07 3.4535e+07 3.50617e+07 3.55883e+07 3.61149e+07 3.66414e+07 3.71678e+07
          3.76942e+07 3.82205e+07 3.87468e+07 3.92729e+07 3.9799e+07 4.03251e+07 4.0851e+07 4.13769e+07 4.19028e+07 4.24285e+07 4.29542e+07 4.34798e+07
          4.40054e+07 4.45312e+07 4.50581e+07 4.55899e+07 4.61411e+07 4.67555e+07 4.75153e+07 4.84485e+07 4.94459e+07 4.94329e+07 4.84572e+07 4.75491e+07
          4.68108e+07 4.62122e+07 4.56729e+07 4.51515e+07 4.46346e+07 4.41186e+07 4.36029e+07 4.3087e+07 4.25712e+07 4.20552e+07 4.15392e+07 4.10231e+07
          4.0507e+07 3.99908e+07 3.94745e+07 3.89581e+07 3.84417e+07 3.79253e+07 3.74087e+07 3.68921e+07 3.63754e+07 3.58587e+07 3.53419e+07 3.4825e+07
          3.43081e+07 3.37911e+07 3.32741e+07 3.2757e+07 3.22398e+07 3.17226e+07 3.12053e+07 3.0688e+07 3.01706e+07 2.96531e+07 2.91356e+07 2.86173e+07
          2.80967e+07 2.75716e+07 2.70408e+07 2.65038e+07 2.59603e+07 2.54104e+07 2.48543e+07 2.4292e+07 2.3724e+07 2.31506e+07 2.25727e+07 2.2e+07
          2.2e+07 2.25842e+07 2.31729e+07 2.37566e+07 2.43346e+07 2.49064e+07 2.54718e+07 2.60307e+07 2.65829e+07 2.71285e+07 2.76677e+07 2.82013e+07
          2.87308e+07 2.92585e+07 2.97859e+07 3.03131e+07 3.08404e+07 3.13675e+07 3.18946e+07 3.24216e+07 3.29486e+07 3.34755e+07 3.40024e+07 3.45291e+07
          3.50558e+07 3.55825e+07 3.61091e+07 3.66356e+07 3.7162e+07 3.76884e+07 3.82147e+07 3.87409e+07 3.92671e+07 3.97932e+07 4.03192e+07 4.08452e+07
          4.13711e+07 4.18969e+07 4.24227e+07 4.29484e+07 4.3474e+07 4.39996e+07 4.45254e+07 4.50523e+07 4.55841e+07 4.61353e+07 4.67498e+07 4.75089e+07
          4.84383e+07 4.94324e+07 4.94215e+07 4.84497e+07 4.75432e+07 4.68051e+07 4.62064e+07 4.56671e+07 4.51457e+07 4.46288e+07 4.41128e+07 4.3597e+07
          4.30812e+07 4.25653e+07 4.20494e+07 4.15334e+07 4.10173e+07 4.05012e+07 3.99849e+07 3.94687e+07 3.89523e+07 3.84359e+07 3.79194e+07 3.74029e+07
          3.68863e+07 3.63696e+07 3.58529e+07 3.53361e+07 3.48192e+07 3.43023e+07 3.37853e+07 3.32683e+07 3.27512e+07 3.2234e+07 3.17168e+07 3.11995e+07
          3.06821e+07 3.01647e+07 2.96473e+07 2.91298e+07 2.86115e+07 2.80909e+07 2.75658e+07 2.7035e+07 2.64979e+07 2.59545e+07 2.54046e+07 2.48484e+07
          2.42861e+07 2.37181e+07 2.31447e+07 2.25668e+07 2.2e+07 2.2e+07 2.25783e+07 2.3167e+07 2.37507e+07 2.43287e+07 2.49005e+07 2.5466e+07
          2.60249e+07 2.65771e+07 2.71227e+07 2.76619e+07 2.81954e+07 2.8725e+07 2.92527e+07 2.97801e+07 3.03073e+07 3.08346e+07 3.13617e+07 3.18888e+07
          3.24158e+07 3.29428e+07 3.34697e+07 3.39965e+07 3.45233e+07 3.505e+07 3.55767e+07 3.61032e+07 3.66298e+07 3.71562e+07 3.76826e+07 3.82089e+07
          3.87351e+07 3.92613e+07 3.97874e+07 4.03134e+07 4.08394e+07 4.13653e+07 4.18911e+07 4.24169e+07 4.29425e+07 4.34682e+07 4.39938e+07 4.45196e+07
          4.50465e+07 4.55783e+07 4.61295e+07 4.6744e+07 4.7503e+07 4.84306e+07 4.9421e+07
        </DataArray>
        <DataArray type="Float32" Name="pressure_oil" NumberOfComponents="1" format="ascii">
          4.95e+07 4.85505e+07 4.95e+07 4.85402e+07 4.76299e+07 4.76196e+07 4.68728e+07 4.68625e+07 4.62657e+07 4.62581e+07 4.57249e+07 4.57191e+07
          4.52038e+07 4.5198e+07 4.4687e+07 4.46812e+07 4.41711e+07 4.41653e+07 4.36553e+07 4.36495e+07 4.31395e+07 4.31337e+07 4.26236e+07 4.26178e+07
          4.21077e+07 4.21018e+07 4.15916e+07 4.15858e+07 4.10756e+07 4.10697e+07 4.05594e+07 4.05536e+07 4.00432e+07 4.00374e+07 3.95269e+07 3.95211e+07
          3.90106e+07 3.90047e+07 3.84941e+07 3.84883e+07 3.79777e+07 3.79718e+07 3.74611e+07 3.74553e+07 3.69445e+07 3.69387e+07 3.64278e+07 3.6422e+07
          3.59111e+07 3.59053e+07 3.53943e+07 3.53885e+07 3.48774e+07 3.48716e+07 3.43605e+07 3.43547e+07 3.38435e+07 3.38377e+07 3.33265e+07 3.33206e+07
          3.28093e+07 3.28035e+07 3.22922e+07 3.22864e+07 3.17749e+07 3.17691e+07 3.12576e+07 3.12518e+07 3.07403e+07 3.07345e+07 3.02229e+07 3.02171e+07
          2.97054e+07 2.96996e+07 2.91879e+07 2.91821e+07 2.86697e+07 2.86638e+07 2.81491e+07 2.81433e+07 2.76241e+07 2.76183e+07 2.70934e+07 2.70876e+07
          2.65565e+07 2.65506e+07 2.60131e+07 2.60072e+07 2.54633e+07 2.54574e+07 2.49072e+07 2.49013e+07 2.4345e+07 2.43391e+07 2.3777e+07 2.37712e+07
          2.32038e+07 2.31979e+07 2.26259e+07 2.262e+07 2.20471e+07 2.20409e+07 2.20474e+07 2.20411e+07 2.26374e+07 2.26315e+07 2.32261e+07 2.32202e+07
          2.38096e+07 2.38038e+07 2.43876e+07 2.43817e+07 2.49593e+07 2.49535e+07 2.55247e+07 2.55188e+07 2.60835e+07 2.60776e+07 2.66356e+07 2.66298e+07
          2.71811e+07 2.71753e+07 2.77202e+07 2.77144e+07 2.82537e+07 2.82478e+07 2.87832e+07 2.87774e+07 2.93109e+07 2.93051e+07 2.98382e+07 2.98324e+07
          3.03655e+07 3.03597e+07 3.08927e+07 3.08869e+07 3.14199e+07 3.14141e+07 3.1947e+07 3.19412e+07 3.2474e+07 3.24682e+07 3.3001e+07 3.29952e+07
          3.35279e+07 3.35221e+07 3.40547e+07 3.40489e+07 3.45815e+07 3.45757e+07 3.51082e+07 3.51024e+07 3.56349e+07 3.56291e+07 3.61615e+07 3.61556e+07
          3.6688e+07 3.66821e+07 3.72144e+07 3.72086e+07 3.77408e+07 3.7735e+07 3.82671e+07 3.82613e+07 3.87933e+07 3.87875e+07 3.93195e+07 3.93137e+07
          3.98456e+07 3.98398e+07 4.03717e+07 4.03658e+07 4.08976e+07 4.08918e+07 4.14235e+07 4.14177e+07 4.19494e+07 4.19435e+07 4.24751e+07 4.24693e+07
          4.30008e+07 4.2995e+07 4.35265e+07 4.35206e+07 4.40521e+07 4.40462e+07 4.45778e+07 4.4572e+07 4.51046e+07 4.50988e+07 4.56361e+07 4.56303e+07
          4.61891e+07 4.61813e+07 4.68123e+07 4.6802e+07 4.75905e+07 4.75802e+07 4.85316e+07 4.85214e+07 4.95e+07 4.95e+07 4.95e+07 4.85299e+07
          4.76091e+07 4.68538e+07 4.62522e+07 4.57133e+07 4.51922e+07 4.46754e+07 4.41594e+07 4.36436e+07 4.31278e+07 4.26119e+07 4.2096e+07 4.158e+07
          4.10639e+07 4.05478e+07 4.00315e+07 3.95153e+07 3.89989e+07 3.84825e+07 3.7966e+07 3.74495e+07 3.69329e+07 3.64162e+07 3.58995e+07 3.53827e+07
          3.48658e+07 3.43489e+07 3.38319e+07 3.33148e+07 3.27977e+07 3.22805e+07 3.17633e+07 3.1246e+07 3.07287e+07 3.02113e+07 2.96938e+07 2.91763e+07
          2.8658e+07 2.81374e+07 2.76125e+07 2.70817e+07 2.65448e+07 2.60014e+07 2.54516e+07 2.48955e+07 2.43332e+07 2.37653e+07 2.31919e+07 2.2614e+07
          2.2034e+07 2.20342e+07 2.26256e+07 2.32143e+07 2.37979e+07 2.43758e+07 2.49476e+07 2.5513e+07 2.60718e+07 2.66239e+07 2.71694e+07 2.77086e+07
          2.8242e+07 2.87715e+07 2.92992e+07 2.98266e+07 3.03539e+07 3.08811e+07 3.14082e+07 3.19353e+07 3.24624e+07 3.29893e+07 3.35163e+07 3.40431e+07
          3.45699e+07 3.50966e+07 3.56232e+07 3.61498e+07 3.66763e+07 3.72028e+07 3.77291e+07 3.82555e+07 3.87817e+07 3.93079e+07 3.9834e+07 4.036e+07
          4.0886e+07 4.14119e+07 4.19377e+07 4.24635e+07 4.29892e+07 4.35148e+07 4.40404e+07 4.45662e+07 4.5093e+07 4.56245e+07 4.61754e+07 4.6793e+07
          4.75697e+07 4.85111e+07 4.95e+07 4.95e+07 4.85196e+07 4.75988e+07 4.68468e+07 4.62464e+07 4.57076e+07 4.51864e+07 4.46695e+07 4.41536e+07
          4.36378e+07 4.3122e+07 4.26061e+07 4.20902e+07 4.15742e+07 4.10581e+07 4.05419e+07 4.00257e+07 3.95094e+07 3.89931e+07 3.84767e+07 3.79602e+07
          3.74437e+07 3.6927e+07 3.64104e+07 3.58936e+07 3.53768e+07 3.486e+07 3.4343e+07 3.38261e+07 3.3309e+07 3.27919e+07 3.22747e+07 3.17575e+07
          3.12402e+07 3.07228e+07 3.02054e+07 2.9688e+07 2.91705e+07 2.86522e+07 2.81316e+07 2.76066e+07 2.70759e+07 2.65389e+07 2.59955e+07 2.54457e+07
          2.48896e+07 2.43274e+07 2.37594e+07 2.3186e+07 2.26081e+07 2.20265e+07 2.20266e+07 2.26196e+07 2.32084e+07 2.3792e+07 2.43699e+07 2.49417e+07
          2.55071e+07 2.60659e+07 2.66181e+07 2.71636e+07 2.77027e+07 2.82362e+07 2.87657e+07 2.92934e+07 2.98208e+07 3.0348e+07 3.08753e+07 3.14024e+07
          3.19295e+07 3.24566e+07 3.29835e+07 3.35104e+07 3.40373e+07 3.45641e+07 3.50908e+07 3.56174e+07 3.6144e+07 3.66705e+07 3.71969e+07 3.77233e+07
          3.82496e+07 3.87759e+07 3.93021e+07 3.98282e+07 4.03542e+07 4.08802e+07 4.14061e+07 4.19319e+07 4.24576e+07 4.29833e+07 4.3509e+07 4.40346e+07
          4.45604e+07 4.50872e+07 4.56187e+07 4.61696e+07 4.67859e+07 4.75593e+07 4.85007e+07 4.95e+07 4.95e+07 4.85092e+07 4.75887e+07 4.68403e+07
          4.62407e+07 4.57018e+07 4.51806e+07 4.46637e+07 4.41478e+07 4.3632e+07 4.31162e+07 4.26003e+07 4.20844e+07 4.15683e+07 4.10523e+07 4.05361e+07
          4.00199e+07 3.95036e+07 3.89873e+07 3.84709e+07 3.79544e+07 3.74378e+07 3.69212e+07 3.64045e+07 3.58878e+07 3.5371e+07 3.48541e+07 3.43372e+07
          3.38202e+07 3.33032e+07 3.27861e+07 3.22689e+07 3.17517e+07 3.12344e+07 3.0717e+07 3.01996e+07 2.96822e+07 2.91647e+07 2.86464e+07 2.81258e+07
          2.76008e+07 2.707e+07 2.6533e+07 2.59896e+07 2.54398e+07 2.48837e+07 2.43215e+07 2.37535e+07 2.31801e+07 2.26022e+07 2.20183e+07 2.20184e+07
          2.26137e+07 2.32024e+07 2.37861e+07 2.4364e+07 2.49358e+07 2.55012e+07 2.606e+07 2.66122e+07 2.71577e+07 2.76969e+07 2.82304e+07 2.87599e+07
          2.92876e+07 2.98149e+07 3.03422e+07 3.08694e+07 3.13966e+07 3.19237e+07 3.24507e+07 3.29777e+07 3.35046e+07 3.40315e+07 3.45582e+07 3.50849e+07
          3.56116e+07 3.61382e+07 3.66647e+07 3.71911e+07 3.77175e+07 3.82438e+07 3.87701e+07 3.92962e+07 3.98223e+07 4.03484e+07 4.08743e+07 4.14002e+07
          4.19261e+07 4.24518e+07 4.29775e+07 4.35031e+07 4.40288e+07 4.45545e+07 4.50814e+07 4.5613e+07 4.61638e+07 4.67794e+07 4.75492e+07 4.84903e+07
          4.95e+07 4.95e+07 4.84987e+07 4.75793e+07 4.68341e+07 4.6235e+07 4.56961e+07 4.51748e+07 4.46579e+07 4.4142e+07 4.36262e+07 4.31103e+07
          4.25945e+07 4.20785e+07 4.15625e+07 4.10464e+07 4.05303e+07 4.00141e+07 3.94978e+07 3.89814e+07 3.8465e+07 3.79486e+07 3.7432e+07 3.69154e+07
          3.63987e+07 3.5882e+07 3.53652e+07 3.48483e+07 3.43314e+07 3.38144e+07 3.32974e+07 3.27803e+07 3.22631e+07 3.17459e+07 3.12286e+07 3.07112e+07
          3.01938e+07 2.96764e+07 2.91588e+07 2.86406e+07 2.812e+07 2.7595e+07 2.70642e+07 2.65272e+07 2.59838e+07 2.5434e+07 2.48778e+07 2.43156e+07
          2.37476e+07 2.31742e+07 2.25963e+07 2.20094e+07 2.20095e+07 2.26078e+07 2.31965e+07 2.37802e+07 2.43581e+07 2.49299e+07 2.54953e+07 2.60542e+07
          2.66064e+07 2.71519e+07 2.76911e+07 2.82246e+07 2.87541e+07 2.92818e+07 2.98091e+07 3.03364e+07 3.08636e+07 3.13908e+07 3.19179e+07 3.24449e+07
          3.29719e+07 3.34988e+07 3.40256e+07 3.45524e+07 3.50791e+07 3.56058e+07 3.61323e+07 3.66589e+07 3.71853e+07 3.77117e+07 3.8238e+07 3.87642e+07
          3.92904e+07 3.98165e+07 4.03425e+07 4.08685e+07 4.13944e+07 4.19202e+07 4.2446e+07 4.29717e+07 4.34973e+07 4.40229e+07 4.45487e+07 4.50756e+07
          4.56072e+07 4.61581e+07 4.67731e+07 4.75396e+07 4.84799e+07 4.95e+07 4.94799e+07 4.84883e+07 4.75706e+07 4.68281e+07 4.62293e+07 4.56903e+07
          4.5169e+07 4.46521e+07 4.41361e+07 4.36203e+07 4.31045e+07 4.25886e+07 4.20727e+07 4.15567e+07 4.10406e+07 4.05245e+07 4.00082e+07 3.9492e+07
          3.89756e+07 3.84592e+07 3.79427e+07 3.74262e+07 3.69096e+07 3.63929e+07 3.58762e+07 3.53594e+07 3.48425e+07 3.43256e+07 3.38086e+07 3.32915e+07
          3.27744e+07 3.22573e+07 3.174e+07 3.12227e+07 3.07054e+07 3.0188e+07 2.96705e+07 2.9153e+07 2.86348e+07 2.81142e+07 2.75891e+07 2.70583e+07
          2.65213e+07 2.59779e+07 2.54281e+07 2.48719e+07 2.43097e+07 2.37417e+07 2.31683e+07 2.25904e+07 2.2e+07 2.2e+07 2.26019e+07 2.31906e+07
          2.37743e+07 2.43522e+07 2.4924e+07 2.54895e+07 2.60483e+07 2.66005e+07 2.71461e+07 2.76852e+07 2.82187e+07 2.87483e+07 2.9276e+07 2.98033e+07
          3.03306e+07 3.08578e+07 3.1385e+07 3.19121e+07 3.24391e+07 3.29661e+07 3.3493e+07 3.40198e+07 3.45466e+07 3.50733e+07 3.56e+07 3.61265e+07
          3.6653e+07 3.71795e+07 3.77059e+07 3.82322e+07 3.87584e+07 3.92846e+07 3.98107e+07 4.03367e+07 4.08627e+07 4.13886e+07 4.19144e+07 4.24402e+07
          4.29659e+07 4.34915e+07 4.40171e+07 4.45429e+07 4.50697e+07 4.56015e+07 4.61525e+07 4.6767e+07 4.75307e+07 4.84694e+07 4.94797e+07 4.94621e+07
          4.84778e+07 4.75625e+07 4.68223e+07 4.62236e+07 4.56845e+07 4.51632e+07 4.46462e+07 4.41303e+07 4.36145e+07 4.30987e+07 4.25828e+07 4.20669e+07
          4.15509e+07 4.10348e+07 4.05186e+07 4.00024e+07 3.94861e+07 3.89698e+07 3.84534e+07 3.79369e+07 3.74204e+07 3.69038e+07 3.63871e+07 3.58704e+07
          3.53536e+07 3.48367e+07 3.43198e+07 3.38028e+07 3.32857e+07 3.27686e+07 3.22514e+07 3.17342e+07 3.12169e+07 3.06996e+07 3.01822e+07 2.96647e+07
          2.91472e+07 2.86289e+07 2.81083e+07 2.75833e+07 2.70525e+07 2.65155e+07 2.5972e+07 2.54222e+07 2.4866e+07 2.43038e+07 2.37358e+07 2.31624e+07
          2.25845e+07 2.2e+07 2.2e+07 2.2596e+07 2.31847e+07 2.37684e+07 2.43463e+07 2.49182e+07 2.54836e+07 2.60424e+07 2.65946e+07 2.71402e+07
          2.76794e+07 2.82129e+07 2.87425e+07 2.92702e+07 2.97975e+07 3.03248e+07 3.0852e+07 3.13792e+07 3.19063e+07 3.24333e+07 3.29603e+07 3.34872e+07
          3.4014e+07 3.45408e+07 3.50675e+07 3.55941e+07 3.61207e+07 3.66472e+07 3.71737e+07 3.77e+07 3.82263e+07 3.87526e+07 3.92788e+07 3.98049e+07
          4.03309e+07 4.08569e+07 4.13828e+07 4.19086e+07 4.24343e+07 4.296e+07 4.34857e+07 4.40113e+07 4.45371e+07 4.50639e+07 4.55957e+07 4.61468e+07
          4.67612e+07 4.75225e+07 4.8459e+07 4.94617e+07 4.94464e+07 4.84674e+07 4.75554e+07 4.68165e+07 4.62179e+07 4.56787e+07 4.51573e+07 4.46404e+07
          4.41245e+07 4.36087e+07 4.30929e+07 4.2577e+07 4.2061e+07 4.1545e+07 4.1029e+07 4.05128e+07 3.99966e+07 3.94803e+07 3.8964e+07 3.84476e+07
          3.79311e+07 3.74145e+07 3.68979e+07 3.63813e+07 3.58645e+07 3.53477e+07 3.48309e+07 3.43139e+07 3.3797e+07 3.32799e+07 3.27628e+07 3.22456e+07
          3.17284e+07 3.12111e+07 3.06938e+07 3.01764e+07 2.96589e+07 2.91414e+07 2.86231e+07 2.81025e+07 2.75774e+07 2.70467e+07 2.65096e+07 2.59662e+07
          2.54163e+07 2.48602e+07 2.42979e+07 2.37299e+07 2.31565e+07 2.25786e+07 2.2e+07 2.2e+07 2.25901e+07 2.31788e+07 2.37625e+07 2.43404e+07
          2.49123e+07 2.54777e+07 2.60366e+07 2.65888e+07 2.71344e+07 2.76736e+07 2.82071e+07 2.87366e+07 2.92643e+07 2.97917e+07 3.0319e+07 3.08462e+07
          3.13733e+07 3.19004e+07 3.24275e+07 3.29544e+07 3.34813e+07 3.40082e+07 3.4535e+07 3.50617e+07 3.55883e+07 3.61149e+07 3.66414e+07 3.71678e+07
          3.76942e+07 3.82205e+07 3.87468e+07 3.92729e+07 3.9799e+07 4.03251e+07 4.0851e+07 4.13769e+07 4.19028e+07 4.24285e+07 4.29542e+07 4.34798e+07
          4.40054e+07 4.45312e+07 4.50581e+07 4.55899e+07 4.61411e+07 4.67555e+07 4.75153e+07 4.84485e+07 4.94459e+07 4.94329e+07 4.84572e+07 4.75491e+07
          4.68108e+07 4.62122e+07 4.56729e+07 4.51515e+07 4.46346e+07 4.41186e+07 4.36029e+07 4.3087e+07 4.25712e+07 4.20552e+07 4.15392e+07 4.10231e+07
          4.0507e+07 3.99908e+07 3.94745e+07 3.89581e+07 3.84417e+07 3.79253e+07 3.74087e+07 3.68921e+07 3.63754e+07 3.58587e+07 3.53419e+07 3.4825e+07
          3.43081e+07 3.37911e+07 3.32741e+07 3.2757e+07 3.22398e+07 3.17226e+07 3.12053e+07 3.0688e+07 3.01706e+07 2.96531e+07 2.91356e+07 2.86173e+07
          2.80967e+07 2.75716e+07 2.70408e+07 2.65038e+07 2.59603e+07 2.54104e+07 2.48543e+07 2.4292e+07 2.3724e+07 2.31506e+07 2.25727e+07 2.2e+07
          2.2e+07 2.25842e+07 2.31729e+07 2.37566e+07 2.43346e+07 2.49064e+07 2.54718e+07 2.60307e+07 2.65829e+07 2.71285e+07 2.76677e+07 2.82013e+07
          2.87308e+07 2.92585e+07 2.97859e+07 3.03131e+07 3.08404e+07 3.13675e+07 3.18946e+07 3.24216e+07 3.29486e+07 3.34755e+07 3.40024e+07 3.45291e+07
          3.50558e+07 3.55825e+07 3.61091e+07 3.66356e+07 3.7162e+07 3.76884e+07 3.82147e+07 3.87409e+07 3.92671e+07 3.97932e+07 4.03192e+07 4.08452e+07
          4.13711e+07 4.18969e+07 4.24227e+07 4.29484e+07 4.3474e+07 4.39996e+07 4.45254e+07 4.50523e+07 4.55841e+07 4.61353e+07 4.67498e+07 4.75089e+07
          4.84383e+07 4.94324e+07 4.94215e+07 4.84497e+07 4.75432e+07 4.68051e+07 4.62064e+07 4.56671e+07 4.51457e+07 4.46288e+07 4.41128e+07 4.3597e+07
          4.30812e+07 4.25653e+07 4.20494e+07 4.15334e+07 4.10173e+07 4.05012e+07 3.99849e+07 3.94687e+07 3.89523e+07 3.84359e+07 3.79194e+07 3.74029e+07
          3.68863e+07 3.63696e+07 3.58529e+07 3.53361e+07 3.48192e+07 3.43023e+07 3.37853e+07 3.32683e+07 3.27512e+07 3.2234e+07 3.17168e+07 3.11995e+07
          3.06821e+07 3.01647e+07 2.96473e+07 2.91298e+07 2.86115e+07 2.80909e+07 2.75658e+07 2.7035e+07 2.64979e+07 2.59545e+07 2.54046e+07 2.48484e+07
          2.42861e+07 2.37181e+07 2.31447e+07 2.25668e+07 2.2e+07 2.2e+07 2.25783e+07 2.3167e+07 2.37507e+07 2.43287e+07 2.49005e+07 2.5466e+07
          2.60249e+07 2.65771e+07 2.71227e+07 2.76619e+07 2.81954e+07 2.8725e+07 2.92527e+07 2.97801e+07 3.03073e+07 3.08346e+07 3.13617e+07 3.18888e+07
          3.24158e+07 3.29428e+07 3.34697e+07 3.39965e+07 3.45233e+07 3.505e+07 3.55767e+07 3.61032e+07 3.66298e+07 3.71562e+07 3.76826e+07 3.82089e+07
          3.87351e+07 3.92613e+07 3.97874e+07 4.03134e+07 4.08394e+07 4.13653e+07 4.18911e+07 4.24169e+07 4.29425e+07 4.34682e+07 4.39938e+07 4.45196e+07
          4.50465e+07 4.55783e+07 4.61295e+07 4.6744e+07 4.7503e+07 4.84306e+07 4.9421e+07
        </DataArray>
        <DataArray type="Float32" Name="pressure_gas" NumberOfComponents="1" format="ascii">
          4.95e+07 4.85505e+07 4.95e+07 4.85402e+07 4.76299e+07 4.76196e+07 4.68728e+07 4.68625e+07 4.62657e+07 4.62581e+07 4.57249e+07 4.57191e+07
          4.52038e+07 4.5198e+07 4.4687e+07 4.46812e+07 4.41711e+07 4.41653e+07 4.36553e+07 4.36495e+07 4.31395e+07 4.31337e+07 4.26236e+07 4.26178e+07
          4.21077e+07 4.21018e+07 4.15916e+07 4.15858e+07 4.10756e+07 4.10697e+07 4.05594e+07 4.05536e+07 4.00432e+07 4.00374e+07 3.95269e+07 3.95211e+07
          3.90106e+07 3.90047e+07 3.84941e+07 3.84883e+07 3.79777e+07 3.79718e+07 3.74611e+07 3.74553e+07 3.69445e+07 3.69387e+07 3.64278e+07 3.6422e+07
          3.59111e+07 3.59053e+07 3.53943e+07 3.53885e+07 3.48774e+07 3.48716e+07 3.43605e+07 3.43547e+07 3.38435e+07 3.38377e+07 3.33265e+07 3.33206e+07
          3.28093e+07 3.28035e+07 3.22922e+07 3.22864e+07 3.17749e+07 3.17691e+07 3.12576e+07 3.12518e+07 3.07403e+07 3.07345e+07 3.02229e+07 3.02171e+07
          2.97054e+07 2.96996e+07 2.91879e+07 2.91821e+07 2.86697e+07 2.86638e+07 2.81491e+07 2.81433e+07 2.76241e+07 2.76183e+07 2.70934e+07 2.70876e+07
          2.65565e+07 2.65506e+07 2.60131e+07 2.60072e+07 2.54633e+07 2.54574e+07 2.49072e+07 2.49013e+07 2.4345e+07 2.43391e+07 2.3777e+07 2.37712e+07