<?xml version="1.0"?>
<VTKFile type="UnstructuredGrid" version="0.1" byte_order="LittleEndian">
  <UnstructuredGrid>
    <Piece NumberOfCells="1000" NumberOfPoints="1111">
      <PointData Scalars="pressure_o">
        <DataArray type="Float32" Name="pressure_o" NumberOfComponents="1" format="ascii">
          4.95e+07 4.90066e+07 4.95e+07 4.89918e+07 4.86526e+07 4.86402e+07 4.82949e+07 4.82821e+07 4.79339e+07 4.79212e+07 4.75697e+07 4.75569e+07
          4.72022e+07 4.71894e+07 4.68314e+07 4.68186e+07 4.64572e+07 4.64445e+07 4.60797e+07 4.6067e+07 4.56988e+07 4.56861e+07 4.53145e+07 4.53017e+07
          4.49267e+07 4.49139e+07 4.45354e+07 4.45226e+07 4.41406e+07 4.41278e+07 4.37422e+07 4.37295e+07 4.33403e+07 4.33275e+07 4.29347e+07 4.2922e+07
          4.25255e+07 4.25127e+07 4.21126e+07 4.20998e+07 4.1696e+07 4.16832e+07 4.12756e+07 4.12628e+07 4.08514e+07 4.08387e+07 4.04235e+07 4.04107e+07
          3.99916e+07 3.99789e+07 3.95559e+07 3.95432e+07 3.91163e+07 3.91035e+07 3.86727e+07 3.86599e+07 3.82251e+07 3.82123e+07 3.77735e+07 3.77607e+07
          3.73178e+07 3.7305e+07 3.6858e+07 3.68452e+07 3.63941e+07 3.63813e+07 3.5926e+07 3.59132e+07 3.54537e+07 3.54409e+07 3.49771e+07 3.49643e+07
          3.44962e+07 3.44835e+07 3.40111e+07 3.39983e+07 3.35215e+07 3.35087e+07 3.30275e+07 3.30148e+07 3.25291e+07 3.25164e+07 3.20262e+07 3.20135e+07
          3.15188e+07 3.15061e+07 3.10068e+07 3.09941e+07 3.04902e+07 3.04775e+07 2.99688e+07 2.9956e+07 2.94423e+07 2.94296e+07 2.89102e+07 2.88975e+07
          2.83771e+07 2.83642e+07 2.77483e+07 2.77372e+07 2.22273e+07 2.22172e+07 2.77483e+07 2.77372e+07 2.83771e+07 2.83642e+07 2.89102e+07 2.88975e+07
          2.94423e+07 2.94296e+07 2.99688e+07 2.9956e+07 3.04902e+07 3.04775e+07 3.10068e+07 3.09941e+07 3.15188e+07 3.15061e+07 3.20262e+07 3.20135e+07
          3.25291e+07 3.25164e+07 3.30275e+07 3.30148e+07 3.35215e+07 3.35087e+07 3.40111e+07 3.39983e+07 3.44962e+07 3.44835e+07 3.49771e+07 3.49643e+07
          3.54537e+07 3.54409e+07 3.5926e+07 3.59132e+07 3.63941e+07 3.63813e+07 3.6858e+07 3.68452e+07 3.73178e+07 3.7305e+07 3.77735e+07 3.77607e+07
          3.82251e+07 3.82123e+07 3.86727e+07 3.86599e+07 3.91163e+07 3.91035e+07 3.95559e+07 3.95432e+07 3.99916e+07 3.99789e+07 4.04235e+07 4.04107e+07
          4.08514e+07 4.08387e+07 4.12756e+07 4.12628e+07 4.1696e+07 4.16832e+07 4.21126e+07 4.20998e+07 4.25255e+07 4.25127e+07 4.29347e+07 4.2922e+07
          4.33403e+07 4.33275e+07 4.37422e+07 4.37295e+07 4.41406e+07 4.41278e+07 4.45354e+07 4.45226e+07 4.49267e+07 4.49139e+07 4.53145e+07 4.53017e+07
          4.56988e+07 4.56861e+07 4.60797e+07 4.6067e+07 4.64572e+07 4.64445e+07 4.68314e+07 4.68186e+07 4.72022e+07 4.71894e+07 4.75697e+07 4.75569e+07
          4.79339e+07 4.79212e+07 4.82949e+07 4.82821e+07 4.86526e+07 4.86402e+07 4.90066e+07 4.89918e+07 4.95e+07 4.95e+07 4.95e+07 4.89773e+07
          4.86278e+07 4.82693e+07 4.79084e+07 4.75442e+07 4.71767e+07 4.68059e+07 4.64317e+07 4.60542e+07 4.56733e+07 4.5289e+07 4.49012e+07 4.45099e+07
          4.41151e+07 4.37167e+07 4.33148e+07 4.29092e+07 4.25e+07 4.20871e+07 4.16704e+07 4.12501e+07 4.08259e+07 4.03979e+07 3.99661e+07 3.95304e+07
          3.90908e+07 3.86472e+07 3.81996e+07 3.7748e+07 3.72923e+07 3.68325e+07 3.63686e+07 3.59005e+07 3.54282e+07 3.49516e+07 3.44707e+07 3.39855e+07
          3.3496e+07 3.3002e+07 3.25036e+07 3.20007e+07 3.14933e+07 3.09813e+07 3.04647e+07 2.99433e+07 2.94168e+07 2.88848e+07 2.83509e+07 2.77288e+07
          2.21969e+07 2.77288e+07 2.83509e+07 2.88848e+07 2.94168e+07 2.99433e+07 3.04647e+07 3.09813e+07 3.14933e+07 3.20007e+07 3.25036e+07 3.3002e+07
          3.3496e+07 3.39855e+07 3.44707e+07 3.49516e+07 3.54282e+07 3.59005e+07 3.63686e+07 3.68325e+07 3.72923e+07 3.7748e+07 3.81996e+07 3.86472e+07
          3.90908e+07 3.95304e+07 3.99661e+07 4.03979e+07 4.08259e+07 4.12501e+07 4.16704e+07 4.20871e+07 4.25e+07 4.29092e+07 4.33148e+07 4.37167e+07
          4.41151e+07 4.45099e+07 4.49012e+07 4.5289e+07 4.56733e+07 4.60542e+07 4.64317e+07 4.68059e+07 4.71767e+07 4.75442e+07 4.79084e+07 4.82693e+07
          4.86278e+07 4.89773e+07 4.95e+07 4.95e+07 4.8963e+07 4.86153e+07 4.82565e+07 4.78957e+07 4.75314e+07 4.71639e+07 4.67931e+07 4.6419e+07
          4.60415e+07 4.56606e+07 4.52762e+07 4.48884e+07 4.44971e+07 4.41023e+07 4.3704e+07 4.3302e+07 4.28964e+07 4.24872e+07 4.20743e+07 4.16577e+07
          4.12373e+07 4.08132e+07 4.03852e+07 3.99534e+07 3.95176e+07 3.9078e+07 3.86344e+07 3.81868e+07 3.77352e+07 3.72795e+07 3.68197e+07 3.63558e+07
          3.58877e+07 3.54154e+07 3.49388e+07 3.4458e+07 3.39728e+07 3.34832e+07 3.29893e+07 3.24909e+07 3.1988e+07 3.14806e+07 3.09686e+07 3.0452e+07
          2.99305e+07 2.94041e+07 2.88722e+07 2.83373e+07 2.77229e+07 2.21653e+07 2.77229e+07 2.83373e+07 2.88722e+07 2.94041e+07 2.99305e+07 3.0452e+07
          3.09686e+07 3.14806e+07 3.1988e+07 3.24909e+07 3.29893e+07 3.34832e+07 3.39728e+07 3.4458e+07 3.49388e+07 3.54154e+07 3.58877e+07 3.63558e+07
          3.68197e+07 3.72795e+07 3.77352e+07 3.81868e+07 3.86344e+07 3.9078e+07 3.95176e+07 3.99534e+07 4.03852e+07 4.08132e+07 4.12373e+07 4.16577e+07
          4.20743e+07 4.24872e+07 4.28964e+07 4.3302e+07 4.3704e+07 4.41023e+07 4.44971e+07 4.48884e+07 4.52762e+07 4.56606e+07 4.60415e+07 4.6419e+07
          4.67931e+07 4.71639e+07 4.75314e+07 4.78957e+07 4.82565e+07 4.86153e+07 4.8963e+07 4.95e+07 4.95e+07 4.8949e+07 4.86028e+07 4.82437e+07
          4.78829e+07 4.75187e+07 4.71512e+07 4.67804e+07 4.64062e+07 4.60287e+07 4.56478e+07 4.52635e+07 4.48757e+07 4.44844e+07 4.40896e+07 4.36912e+07
          4.32893e+07 4.28837e+07 4.24745e+07 4.20616e+07 4.16449e+07 4.12246e+07 4.08004e+07 4.03724e+07 3.99406e+07 3.95049e+07 3.90653e+07 3.86217e+07
          3.81741e+07 3.77225e+07 3.72668e+07 3.6807e+07 3.63431e+07 3.5875e+07 3.54026e+07 3.49261e+07 3.44452e+07 3.396e+07 3.34705e+07 3.29765e+07
          3.24781e+07 3.19752e+07 3.14678e+07 3.09558e+07 3.04392e+07 2.99178e+07 2.93913e+07 2.88596e+07 2.83234e+07 2.77193e+07 2.21223e+07 2.77193e+07
          2.83234e+07 2.88596e+07 2.93913e+07 2.99178e+07 3.04392e+07 3.09558e+07 3.14678e+07 3.19752e+07 3.24781e+07 3.29765e+07 3.34705e+07 3.396e+07
          3.44452e+07 3.49261e+07 3.54026e+07 3.5875e+07 3.63431e+07 3.6807e+07 3.72668e+07 3.77225e+07 3.81741e+07 3.86217e+07 3.90653e+07 3.95049e+07
          3.99406e+07 4.03724e+07 4.08004e+07 4.12246e+07 4.16449e+07 4.20616e+07 4.24745e+07 4.28837e+07 4.32893e+07 4.36912e+07 4.40896e+07 4.44844e+07
          4.48757e+07 4.52635e+07 4.56478e+07 4.60287e+07 4.64062e+07 4.67804e+07 4.71512e+07 4.75187e+07 4.78829e+07 4.82437e+07 4.86028e+07 4.8949e+07
          4.95e+07 4.94508e+07 4.89436e+07 4.85888e+07 4.82311e+07 4.78701e+07 4.75059e+07 4.71384e+07 4.67676e+07 4.63935e+07 4.6016e+07 4.56351e+07
          4.52507e+07 4.48629e+07 4.44716e+07 4.40768e+07 4.36785e+07 4.32765e+07 4.28709e+07 4.24617e+07 4.20488e+07 4.16322e+07 4.12118e+07 4.07877e+07
          4.03597e+07 3.99279e+07 3.94921e+07 3.90525e+07 3.86089e+07 3.81613e+07 3.77097e+07 3.7254e+07 3.67942e+07 3.63303e+07 3.58622e+07 3.53899e+07
          3.49133e+07 3.44325e+07 3.39473e+07 3.34577e+07 3.29638e+07 3.24654e+07 3.19625e+07 3.14551e+07 3.09431e+07 3.04265e+07 2.9905e+07 2.93785e+07
          2.88471e+07 2.83092e+07 2.7718e+07 2.20674e+07 2.7718e+07 2.83092e+07 2.88471e+07 2.93785e+07 2.9905e+07 3.04265e+07 3.09431e+07 3.14551e+07
          3.19625e+07 3.24654e+07 3.29638e+07 3.34577e+07 3.39473e+07 3.44325e+07 3.49133e+07 3.53899e+07 3.58622e+07 3.63303e+07 3.67942e+07 3.7254e+07
          3.77097e+07 3.81613e+07 3.86089e+07 3.90525e+07 3.94921e+07 3.99279e+07 4.03597e+07 4.07877e+07 4.12118e+07 4.16322e+07 4.20488e+07 4.24617e+07
          4.28709e+07 4.32765e+07 4.36785e+07 4.40768e+07 4.44716e+07 4.48629e+07 4.52507e+07 4.56351e+07 4.6016e+07 4.63935e+07 4.67676e+07 4.71384e+07
          4.75059e+07 4.78701e+07 4.82311e+07 4.85888e+07 4.89436e+07 4.94508e+07 4.94307e+07 4.89331e+07 4.85757e+07 4.82184e+07 4.78574e+07 4.74932e+07
          4.71257e+07 4.67549e+07 4.63807e+07 4.60032e+07 4.56223e+07 4.5238e+07 4.48502e+07 4.44589e+07 4.40641e+07 4.36657e+07 4.32638e+07 4.28582e+07
          4.2449e+07 4.20361e+07 4.16194e+07 4.11991e+07 4.07749e+07 4.03469e+07 3.99151e+07 3.94794e+07 3.90398e+07 3.85962e+07 3.81486e+07 3.7697e+07
          3.72413e+07 3.67815e+07 3.63176e+07 3.58495e+07 3.53771e+07 3.49006e+07 3.44197e+07 3.39345e+07 3.3445e+07 3.2951e+07 3.24526e+07 3.19497e+07
          3.14423e+07 3.09303e+07 3.04137e+07 2.98923e+07 2.93657e+07 2.88346e+07 2.82948e+07 2.77187e+07 2.2e+07 2.77187e+07 2.82948e+07 2.88346e+07
          2.93657e+07 2.98923e+07 3.04137e+07 3.09303e+07 3.14423e+07 3.19497e+07 3.24526e+07 3.2951e+07 3.3445e+07 3.39345e+07 3.44197e+07 3.49006e+07
          3.53771e+07 3.58495e+07 3.63176e+07 3.67815e+07 3.72413e+07 3.7697e+07 3.81486e+07 3.85962e+07 3.90398e+07 3.94794e+07 3.99151e+07 4.03469e+07
          4.07749e+07 4.11991e+07 4.16194e+07 4.20361e+07 4.2449e+07 4.28582e+07 4.32638e+07 4.36657e+07 4.40641e+07 4.44589e+07 4.48502e+07 4.5238e+07
          4.56223e+07 4.60032e+07 4.63807e+07 4.67549e+07 4.71257e+07 4.74932e+07 4.78574e+07 4.82184e+07 4.85757e+07 4.89331e+07 4.94307e+07 4.94124e+07
          4.8922e+07 4.85627e+07 4.82057e+07 4.78446e+07 4.74804e+07 4.71129e+07 4.67421e+07 4.6368e+07 4.59905e+07 4.56096e+07 4.52252e+07 4.48374e+07
          4.44461e+07 4.40513e+07 4.3653e+07 4.3251e+07 4.28454e+07 4.24362e+07 4.20233e+07 4.16067e+07 4.11863e+07 4.07622e+07 4.03342e+07 3.99024e+07
          3.94666e+07 3.9027e+07 3.85834e+07 3.81358e+07 3.76842e+07 3.72285e+07 3.67687e+07 3.63048e+07 3.58367e+07 3.53644e+07 3.48878e+07 3.4407e+07
          3.39218e+07 3.34322e+07 3.29383e+07 3.24399e+07 3.1937e+07 3.14295e+07 3.09176e+07 3.0401e+07 2.98795e+07 2.93529e+07 2.88218e+07 2.82824e+07
          2.77077e+07 2.2e+07 2.77077e+07 2.82824e+07 2.88218e+07 2.93529e+07 2.98795e+07 3.0401e+07 3.09176e+07 3.14295e+07 3.1937e+07 3.24399e+07
          3.29383e+07 3.34322e+07 3.39218e+07 3.4407e+07 3.48878e+07 3.53644e+07 3.58367e+07 3.63048e+07 3.67687e+07 3.72285e+07 3.76842e+07 3.81358e+07
          3.85834e+07 3.9027e+07 3.94666e+07 3.99024e+07 4.03342e+07 4.07622e+07 4.11863e+07 4.16067e+07 4.20233e+07 4.24362e+07 4.28454e+07 4.3251e+07
          4.3653e+07 4.40513e+07 4.44461e+07 4.48374e+07 4.52252e+07 4.56096e+07 4.59905e+07 4.6368e+07 4.67421e+07 4.71129e+07 4.74804e+07 4.78446e+07
          4.82057e+07 4.85627e+07 4.8922e+07 4.94124e+07 4.93957e+07 4.89104e+07 4.85498e+07 4.8193e+07 4.78319e+07 4.74677e+07 4.71002e+07 4.67294e+07
          4.63552e+07 4.59777e+07 4.55968e+07 4.52125e+07 4.48247e+07 4.44334e+07 4.40386e+07 4.36402e+07 4.32382e+07 4.28327e+07 4.24235e+07 4.20106e+07
          4.15939e+07 4.11736e+07 4.07494e+07 4.03214e+07 3.98896e+07 3.94539e+07 3.90142e+07 3.85707e+07 3.81231e+07 3.76714e+07 3.72158e+07 3.6756e+07
          3.62921e+07 3.5824e+07 3.53516e+07 3.48751e+07 3.43942e+07 3.3909e+07 3.34195e+07 3.29255e+07 3.24271e+07 3.19242e+07 3.14168e+07 3.09048e+07
          3.03882e+07 2.98668e+07 2.93402e+07 2.88089e+07 2.82701e+07 2.76962e+07 2.2e+07 2.76962e+07 2.82701e+07 2.88089e+07 2.93402e+07 2.98668e+07
          3.03882e+07 3.09048e+07 3.14168e+07 3.19242e+07 3.24271e+07 3.29255e+07 3.34195e+07 3.3909e+07 3.43942e+07 3.48751e+07 3.53516e+07 3.5824e+07
          3.62921e+07 3.6756e+07 3.72158e+07 3.76714e+07 3.81231e+07 3.85707e+07 3.90142e+07 3.94539e+07 3.98896e+07 4.03214e+07 4.07494e+07 4.11736e+07
          4.15939e+07 4.20106e+07 4.24235e+07 4.28327e+07 4.32382e+07 4.36402e+07 4.40386e+07 4.44334e+07 4.48247e+07 4.52125e+07 4.55968e+07 4.59777e+07
          4.63552e+07 4.67294e+07 4.71002e+07 4.74677e+07 4.78319e+07 4.8193e+07 4.85498e+07 4.89104e+07 4.93957e+07 4.93806e+07 4.88983e+07 4.8537e+07
          4.81802e+07 4.78191e+07 4.74549e+07 4.70874e+07 4.67166e+07 4.63425e+07 4.5965e+07 4.55841e+07 4.51997e+07 4.48119e+07 4.44206e+07 4.40258e+07
          4.36274e+07 4.32255e+07 4.28199e+07 4.24107e+07 4.19978e+07 4.15812e+07 4.11608e+07 4.07366e+07 4.03087e+07 3.98768e+07 3.94411e+07 3.90015e+07
          3.85579e+07 3.81103e+07 3.76587e+07 3.7203e+07 3.67432e+07 3.62793e+07 3.58112e+07 3.53389e+07 3.48623e+07 3.43815e+07 3.38963e+07 3.34067e+07
          3.29128e+07 3.24144e+07 3.19115e+07 3.1404e+07 3.08921e+07 3.03755e+07 2.9854e+07 2.93275e+07 2.87961e+07 2.8258e+07 2.76843e+07 2.2e+07
          2.76843e+07 2.8258e+07 2.87961e+07 2.93275e+07 2.9854e+07 3.03755e+07 3.08921e+07 3.1404e+07 3.19115e+07 3.24144e+07 3.29128e+07 3.34067e+07
          3.38963e+07 3.43815e+07 3.48623e+07 3.53389e+07 3.58112e+07 3.62793e+07 3.67432e+07 3.7203e+07 3.76587e+07 3.81103e+07 3.85579e+07 3.90015e+07
          3.94411e+07 3.98768e+07 4.03087e+07 4.07366e+07 4.11608e+07 4.15812e+07 4.19978e+07 4.24107e+07 4.28199e+07 4.32255e+07 4.36274e+07 4.40258e+07
          4.44206e+07 4.48119e+07 4.51997e+07 4.55841e+07 4.5965e+07 4.63425e+07 4.67166e+07 4.70874e+07 4.74549e+07 4.78191e+07 4.81802e+07 4.8537e+07
          4.88983e+07 4.93806e+07 4.9367e+07 4.88858e+07 4.85242e+07 4.81675e+07 4.78064e+07 4.74422e+07 4.70747e+07 4.67039e+07 4.63297e+07 4.59522e+07
          4.55713e+07 4.5187e+07 4.47992e+07 4.44079e+07 4.40131e+07 4.36147e+07 4.32127e+07 4.28072e+07 4.2398e+07 4.1985e+07 4.15684e+07 4.11481e+07
          4.07239e+07 4.02959e+07 3.98641e+07 3.94284e+07 3.89887e+07 3.85451e+07 3.80976e+07 3.76459e+07 3.71903e+07 3.67305e+07 3.62665e+07 3.57984e+07
          3.53261e+07 3.48496e+07 3.43687e+07 3.38835e+07 3.3394e+07 3.29e+07 3.24016e+07 3.18987e+07 3.13913e+07 3.08793e+07 3.03627e+07 2.98412e+07
          2.93147e+07 2.87832e+07 2.82459e+07 2.76719e+07 2.2e+07 2.76719e+07 2.82459e+07 2.87832e+07 2.93147e+07 2.98412e+07 3.03627e+07 3.08793e+07
          3.13913e+07 3.18987e+07 3.24016e+07 3.29e+07 3.3394e+07 3.38835e+07 3.43687e+07 3.48496e+07 3.53261e+07 3.57984e+07 3.62665e+07 3.67305e+07
          3.71903e+07 3.76459e+07 3.80976e+07 3.85451e+07 3.89887e+07 3.94284e+07 3.98641e+07 4.02959e+07 4.07239e+07 4.11481e+07 4.15684e+07 4.1985e+07
          4.2398e+07 4.28072e+07 4.32127e+07 4.36147e+07 4.40131e+07 4.44079e+07 4.47992e+07 4.5187e+07 4.55713e+07 4.59522e+07 4.63297e+07 4.67039e+07
          4.70747e+07 4.74422e+07 4.78064e+07 4.81675e+07 4.85242e+07 4.88858e+07 4.9367e+07
        </DataArray>
        <DataArray type="Float32" Name="pressure_w" NumberOfComponents="1" format="ascii">
          4.95e+07 4.90066e+07 4.95e+07 4.89918e+07 4.86526e+07 4.86402e+07 4.82949e+07 4.82821e+07 4.79339e+07 4.79212e+07 4.75697e+07 4.75569e+07
          4.72022e+07 4.71894e+07 4.68314e+07 4.68186e+07 4.64572e+07 4.64445e+07 4.60797e+07 4.6067e+07 4.56988e+07 4.56861e+07 4.53145e+07 4.53017e+07
          4.49267e+07 4.49139e+07 4.45354e+07 4.45226e+07 4.41406e+07 4.41278e+07 4.37422e+07 4.37295e+07 4.33403e+07 4.33275e+07 4.29347e+07 4.2922e+07
          4.25255e+07 4.25127e+07 4.21126e+07 4.20998e+07 4.1696e+07 4.16832e+07 4.12756e+07 4.12628e+07 4.08514e+07 4.08387e+07 4.04235e+07 4.04107e+07
          3.99916e+07 3.99789e+07 3.95559e+07 3.95432e+07 3.91163e+07 3.91035e+07 3.86727e+07 3.86599e+07 3.82251e+07 3.82123e+07 3.77735e+07 3.77607e+07
          3.73178e+07 3.7305e+07 3.6858e+07 3.68452e+07 3.63941e+07 3.63813e+07 3.5926e+07 3.59132e+07 3.54537e+07 3.54409e+07 3.49771e+07 3.49643e+07
          3.44962e+07 3.44835e+07 3.40111e+07 3.39983e+07 3.35215e+07 3.35087e+07 3.30275e+07 3.30148e+07 3.25291e+07 3.25164e+07 3.20262e+07 3.20135e+07
          3.15188e+07 3.15061e+07 3.10068e+07 3.09941e+07 3.04902e+07 3.04775e+07 2.99688e+07 2.9956e+07 2.94423e+07 2.94296e+07 2.89102e+07 2.88975e+07
          2.83771e+07 2.83642e+07 2.77483e+07 2.77372e+07 2.22273e+07 2.22172e+07 2.77483e+07 2.77372e+07 2.83771e+07 2.83642e+07 2.89102e+07 2.88975e+07
          2.94423e+07 2.94296e+07 2.99688e+07 2.9956e+07 3.04902e+07 3.04775e+07 3.10068e+07 3.09941e+07 3.15188e+07 3.15061e+07 3.20262e+07 3.20135e+07
          3.25291e+07 3.25164e+07 3.30275e+07 3.30148e+07 3.35215e+07 3.35087e+07 3.40111e+07 3.39983e+07 3.44962e+07 3.44835e+07 3.49771e+07 3.49643e+07
          3.54537e+07 3.54409e+07 3.5926e+07 3.59132e+07 3.63941e+07 3.63813e+07 3.6858e+07 3.68452e+07 3.73178e+07 3.7305e+07 3.77735e+07 3.77607e+07
          3.82251e+07 3.82123e+07 3.86727e+07 3.86599e+07 3.91163e+07 3.91035e+07 3.95559e+07 3.95432e+07 3.99916e+07 3.99789e+07 4.04235e+07 4.04107e+07
          4.08514e+07 4.08387e+07 4.12756e+07 4.12628e+07 4.1696e+07 4.16832e+07 4.21126e+07 4.20998e+07 4.25255e+07 4.25127e+07 4.29347e+07 4.2922e+07
          4.33403e+07 4.33275e+07 4.37422e+07 4.37295e+07 4.41406e+07 4.41278e+07 4.45354e+07 4.45226e+07 4.49267e+07 4.49139e+07 4.53145e+07 4.53017e+07
          4.56988e+07 4.56861e+07 4.60797e+07 4.6067e+07 4.64572e+07 4.64445e+07 4.68314e+07 4.68186e+07 4.72022e+07 4.71894e+07 4.75697e+07 4.75569e+07
          4.79339e+07 4.79212e+07 4.82949e+07 4.82821e+07 4.86526e+07 4.86402e+07 4.90066e+07 4.89918e+07 4.95e+07 4.95e+07 4.95e+07 4.89773e+07
          4.86278e+07 4.82693e+07 4.79084e+07 4.75442e+07 4.71767e+07 4.68059e+07 4.64317e+07 4.60542e+07 4.56733e+07 4.5289e+07 4.49012e+07 4.45099e+07
          4.41151e+07 4.37167e+07 4.33148e+07 4.29092e+07 4.25e+07 4.20871e+07 4.16704e+07 4.12501e+07 4.08259e+07 4.03979e+07 3.99661e+07 3.95304e+07
          3.90908e+07 3.86472e+07 3.81996e+07 3.7748e+07 3.72923e+07 3.68325e+07 3.63686e+07 3.59005e+07 3.54282e+07 3.49516e+07 3.44707e+07 3.39855e+07
          3.3496e+07 3.3002e+07 3.25036e+07 3.20007e+07 3.14933e+07 3.09813e+07 3.04647e+07 2.99433e+07 2.94168e+07 2.88848e+07 2.83509e+07 2.77288e+07
          2.21969e+07 2.77288e+07 2.83509e+07 2.88848e+07 2.94168e+07 2.99433e+07 3.04647e+07 3.09813e+07 3.14933e+07 3.20007e+07 3.25036e+07 3.3002e+07
          3.3496e+07 3.39855e+07 3.44707e+07 3.49516e+07 3.54282e+07 3.59005e+07 3.63686e+07 3.68325e+07 3.72923e+07 3.7748e+07 3.81996e+07 3.86472e+07
          3.90908e+07 3.95304e+07 3.99661e+07 4.03979e+07 4.08259e+07 4.12501e+07 4.16704e+07 4.20871e+07 4.25e+07 4.29092e+07 4.33148e+07 4.37167e+07
          4.41151e+07 4.45099e+07 4.49012e+07 4.5289e+07 4.56733e+07 4.60542e+07 4.64317e+07 4.68059e+07 4.71767e+07 4.75442e+07 4.79084e+07 4.82693e+07
          4.86278e+07 4.89773e+07 4.95e+07 4.95e+07 4.8963e+07 4.86153e+07 4.82565e+07 4.78957e+07 4.75314e+07 4.71639e+07 4.67931e+07 4.6419e+07
          4.60415e+07 4.56606e+07 4.52762e+07 4.48884e+07 4.44971e+07 4.41023e+07 4.3704e+07 4.3302e+07 4.28964e+07 4.24872e+07 4.20743e+07 4.16577e+07
          4.12373e+07 4.08132e+07 4.03852e+07 3.99534e+07 3.95176e+07 3.9078e+07 3.86344e+07 3.81868e+07 3.77352e+07 3.72795e+07 3.68197e+07 3.63558e+07
          3.58877e+07 3.54154e+07 3.49388e+07 3.4458e+07 3.39728e+07 3.34832e+07 3.29893e+07 3.24909e+07 3.1988e+07 3.14806e+07 3.09686e+07 3.0452e+07
          2.99305e+07 2.94041e+07 2.88722e+07 2.83373e+07 2.77229e+07 2.21653e+07 2.77229e+07 2.83373e+07 2.88722e+07 2.94041e+07 2.99305e+07 3.0452e+07
          3.09686e+07 3.14806e+07 3.1988e+07 3.24909e+07 3.29893e+07 3.34832e+07 3.39728e+07 3.4458e+07 3.49388e+07 3.54154e+07 3.58877e+07 3.63558e+07
          3.68197e+07 3.72795e+07 3.77352e+07 3.81868e+07 3.86344e+07 3.9078e+07 3.95176e+07 3.99534e+07 4.03852e+07 4.08132e+07 4.12373e+07 4.16577e+07
          4.20743e+07 4.24872e+07 4.28964e+07 4.3302e+07 4.3704e+07 4.41023e+07 4.44971e+07 4.48884e+07 4.52762e+07 4.56606e+07 4.60415e+07 4.6419e+07
          4.67931e+07 4.71639e+07 4.75314e+07 4.78957e+07 4.82565e+07 4.86153e+07 4.8963e+07 4.95e+07 4.95e+07 4.8949e+07 4.86028e+07 4.82437e+07
          4.78829e+07 4.75187e+07 4.71512e+07 4.67804e+07 4.64062e+07 4.60287e+07 4.56478e+07 4.52635e+07 4.48757e+07 4.44844e+07 4.40896e+07 4.36912e+07
          4.32893e+07 4.28837e+07 4.24745e+07 4.20616e+07 4.16449e+07 4.12246e+07 4.08004e+07 4.03724e+07 3.99406e+07 3.95049e+07 3.90653e+07 3.86217e+07
          3.81741e+07 3.77225e+07 3.72668e+07 3.6807e+07 3.63431e+07 3.5875e+07 3.54026e+07 3.49261e+07 3.44452e+07 3.396e+07 3.34705e+07 3.29765e+07
          3.24781e+07 3.19752e+07 3.14678e+07 3.09558e+07 3.04392e+07 2.99178e+07 2.93913e+07 2.88596e+07 2.83234e+07 2.77193e+07 2.21223e+07 2.77193e+07
          2.83234e+07 2.88596e+07 2.93913e+07 2.99178e+07 3.04392e+07 3.09558e+07 3.14678e+07 3.19752e+07 3.24781e+07 3.29765e+07 3.34705e+07 3.396e+07
          3.44452e+07 3.49261e+07 3.54026e+07 3.5875e+07 3.63431e+07 3.6807e+07 3.72668e+07 3.77225e+07 3.81741e+07 3.86217e+07 3.90653e+07 3.95049e+07
          3.99406e+07 4.03724e+07 4.08004e+07 4.12246e+07 4.16449e+07 4.20616e+07 4.24745e+07 4.28837e+07 4.32893e+07 4.36912e+07 4.40896e+07 4.44844e+07
          4.48757e+07 4.52635e+07 4.56478e+07 4.60287e+07 4.64062e+07 4.67804e+07 4.71512e+07 4.75187e+07 4.78829e+07 4.82437e+07 4.86028e+07 4.8949e+07
          4.95e+07 4.94508e+07 4.89436e+07 4.85888e+07 4.82311e+07 4.78701e+07 4.75059e+07 4.71384e+07 4.67676e+07 4.63935e+07 4.6016e+07 4.56351e+07
          4.52507e+07 4.48629e+07 4.44716e+07 4.40768e+07 4.36785e+07 4.32765e+07 4.28709e+07 4.24617e+07 4.20488e+07 4.16322e+07 4.12118e+07 4.07877e+07
          4.03597e+07 3.99279e+07 3.94921e+07 3.90525e+07 3.86089e+07 3.81613e+07 3.77097e+07 3.7254e+07 3.67942e+07 3.63303e+07 3.58622e+07 3.53899e+07
          3.49133e+07 3.44325e+07 3.39473e+07 3.34577e+07 3.29638e+07 3.24654e+07 3.19625e+07 3.14551e+07 3.09431e+07 3.04265e+07 2.9905e+07 2.93785e+07
          2.88471e+07 2.83092e+07 2.7718e+07 2.20674e+07 2.7718e+07 2.83092e+07 2.88471e+07 2.93785e+07 2.9905e+07 3.04265e+07 3.09431e+07 3.14551e+07
          3.19625e+07 3.24654e+07 3.29638e+07 3.34577e+07 3.39473e+07 3.44325e+07 3.49133e+07 3.53899e+07 3.58622e+07 3.63303e+07 3.67942e+07 3.7254e+07
          3.77097e+07 3.81613e+07 3.86089e+07 3.90525e+07 3.94921e+07 3.99279e+07 4.03597e+07 4.07877e+07 4.12118e+07 4.16322e+07 4.20488e+07 4.24617e+07
          4.28709e+07 4.32765e+07 4.36785e+07 4.40768e+07 4.44716e+07 4.48629e+07 4.52507e+07 4.56351e+07 4.6016e+07 4.63935e+07 4.67676e+07 4.71384e+07
          4.75059e+07 4.78701e+07 4.82311e+07 4.85888e+07 4.89436e+07 4.94508e+07 4.94307e+07 4.89331e+07 4.85757e+07 4.82184e+07 4.78574e+07 4.74932e+07
          4.71257e+07 4.67549e+07 4.63807e+07 4.60032e+07 4.56223e+07 4.5238e+07 4.48502e+07 4.44589e+07 4.40641e+07 4.36657e+07 4.32638e+07 4.28582e+07
          4.2449e+07 4.20361e+07 4.16194e+07 4.11991e+07 4.07749e+07 4.03469e+07 3.99151e+07 3.94794e+07 3.90398e+07 3.85962e+07 3.81486e+07 3.7697e+07
          3.72413e+07 3.67815e+07 3.63176e+07 3.58495e+07 3.53771e+07 3.49006e+07 3.44197e+07 3.39345e+07 3.3445e+07 3.2951e+07 3.24526e+07 3.19497e+07
          3.14423e+07 3.09303e+07 3.04137e+07 2.98923e+07 2.93657e+07 2.88346e+07 2.82948e+07 2.77187e+07 2.2e+07 2.77187e+07 2.82948e+07 2.88346e+07
          2.93657e+07 2.98923e+07 3.04137e+07 3.09303e+07 3.14423e+07 3.19497e+07 3.24526e+07 3.2951e+07 3.3445e+07 3.39345e+07 3.44197e+07 3.49006e+07
          3.53771e+07 3.58495e+07 3.63176e+07 3.67815e+07 3.72413e+07 3.7697e+07 3.81486e+07 3.85962e+07 3.90398e+07 3.94794e+07 3.99151e+07 4.03469e+07
          4.07749e+07 4.11991e+07 4.16194e+07 4.20361e+07 4.2449e+07 4.28582e+07 4.32638e+07 4.36657e+07 4.40641e+07 4.44589e+07 4.48502e+07 4.5238e+07
          4.56223e+07 4.60032e+07 4.63807e+07 4.67549e+07 4.71257e+07 4.74932e+07 4.78574e+07 4.82184e+07 4.85757e+07 4.89331e+07 4.94307e+07 4.94124e+07
          4.8922e+07 4.85627e+07 4.82057e+07 4.78446e+07 4.74804e+07 4.71129e+07 4.67421e+07 4.6368e+07 4.59905e+07 4.56096e+07 4.52252e+07 4.48374e+07
          4.44461e+07 4.40513e+07 4.3653e+07 4.3251e+07 4.28454e+07 4.24362e+07 4.20233e+07 4.16067e+07 4.11863e+07 4.07622e+07 4.03342e+07 3.99024e+07
          3.94666e+07 3.9027e+07 3.85834e+07 3.81358e+07 3.76842e+07 3.72285e+07 3.67687e+07 3.63048e+07 3.58367e+07 3.53644e+07 3.48878e+07 3.4407e+07
          3.39218e+07 3.34322e+07 3.29383e+07 3.24399e+07 3.1937e+07 3.14295e+07 3.09176e+07 3.0401e+07 2.98795e+07 2.93529e+07 2.88218e+07 2.82824e+07
          2.77077e+07 2.2e+07 2.77077e+07 2.82824e+07 2.88218e+07 2.93529e+07 2.98795e+07 3.0401e+07 3.09176e+07 3.14295e+07 3.1937e+07 3.24399e+07
          3.29383e+07 3.34322e+07 3.39218e+07 3.4407e+07 3.48878e+07 3.53644e+07 3.58367e+07 3.63048e+07 3.67687e+07 3.72285e+07 3.76842e+07 3.81358e+07
          3.85834e+07 3.9027e+07 3.94666e+07 3.99024e+07 4.03342e+07 4.07622e+07 4.11863e+07 4.16067e+07 4.20233e+07 4.24362e+07 4.28454e+07 4.3251e+07
          4.3653e+07 4.40513e+07 4.44461e+07 4.48374e+07 4.52252e+07 4.56096e+07 4.59905e+07 4.6368e+07 4.67421e+07 4.71129e+07 4.74804e+07 4.78446e+07
          4.82057e+07 4.85627e+07 4.8922e+07 4.94124e+07 4.93957e+07 4.89104e+07 4.85498e+07 4.8193e+07 4.78319e+07 4.74677e+07 4.71002e+07 4.67294e+07
          4.63552e+07 4.59777e+07 4.55968e+07 4.52125e+07 4.48247e+07 4.44334e+07 4.40386e+07 4.36402e+07 4.32382e+07 4.28327e+07 4.24235e+07 4.20106e+07
          4.15939e+07 4.11736e+07 4.07494e+07 4.03214e+07 3.98896e+07 3.94539e+07 3.90142e+07 3.85707e+07 3.81231e+07 3.76714e+07 3.72158e+07 3.6756e+07
          3.62921e+07 3.5824e+07 3.53516e+07 3.48751e+07 3.43942e+07 3.3909e+07 3.34195e+07 3.29255e+07 3.24271e+07 3.19242e+07 3.14168e+07 3.09048e+07
          3.03882e+07 2.98668e+07 2.93402e+07 2.88089e+07 2.82701e+07 2.76962e+07 2.2e+07 2.76962e+07 2.82701e+07 2.88089e+07 2.93402e+07 2.98668e+07
          3.03882e+07 3.09048e+07 3.14168e+07 3.19242e+07 3.24271e+07 3.29255e+07 3.34195e+07 3.3909e+07 3.43942e+07 3.48751e+07 3.53516e+07 3.5824e+07
          3.62921e+07 3.6756e+07 3.72158e+07 3.76714e+07 3.81231e+07 3.85707e+07 3.90142e+07 3.94539e+07 3.98896e+07 4.03214e+07 4.07494e+07 4.11736e+07
          4.15939e+07 4.20106e+07 4.24235e+07 4.28327e+07 4.32382e+07 4.36402e+07 4.40386e+07 4.44334e+07 4.48247e+07 4.52125e+07 4.55968e+07 4.59777e+07
          4.63552e+07 4.67294e+07 4.71002e+07 4.74677e+07 4.78319e+07 4.8193e+07 4.85498e+07 4.89104e+07 4.93957e+07 4.93806e+07 4.88983e+07 4.8537e+07
          4.81802e+07 4.78191e+07 4.74549e+07 4.70874e+07 4.67166e+07 4.63425e+07 4.5965e+07 4.55841e+07 4.51997e+07 4.48119e+07 4.44206e+07 4.40258e+07
          4.36274e+07 4.32255e+07 4.28199e+07 4.24107e+07 4.19978e+07 4.15812e+07 4.11608e+07 4.07366e+07 4.03087e+07 3.98768e+07 3.94411e+07 3.90015e+07
          3.85579e+07 3.81103e+07 3.76587e+07 3.7203e+07 3.67432e+07 3.62793e+07 3.58112e+07 3.53389e+07 3.48623e+07 3.43815e+07 3.38963e+07 3.34067e+07
          3.29128e+07 3.24144e+07 3.19115e+07 3.1404e+07 3.08921e+07 3.03755e+07 2.9854e+07 2.93275e+07 2.87961e+07 2.8258e+07 2.76843e+07 2.2e+07
          2.76843e+07 2.8258e+07 2.87961e+07 2.93275e+07 2.9854e+07 3.03755e+07 3.08921e+07 3.1404e+07 3.19115e+07 3.24144e+07 3.29128e+07 3.34067e+07
          3.38963e+07 3.43815e+07 3.48623e+07 3.53389e+07 3.58112e+07 3.62793e+07 3.67432e+07 3.7203e+07 3.76587e+07 3.81103e+07 3.85579e+07 3.90015e+07
          3.94411e+07 3.98768e+07 4.03087e+07 4.07366e+07 4.11608e+07 4.15812e+07 4.19978e+07 4.24107e+07 4.28199e+07 4.32255e+07 4.36274e+07 4.40258e+07
          4.44206e+07 4.48119e+07 4.51997e+07 4.55841e+07 4.5965e+07 4.63425e+07 4.67166e+07 4.70874e+07 4.74549e+07 4.78191e+07 4.81802e+07 4.8537e+07
          4.88983e+07 4.93806e+07 4.9367e+07 4.88858e+07 4.85242e+07 4.81675e+07 4.78064e+07 4.74422e+07 4.70747e+07 4.67039e+07 4.63297e+07 4.59522e+07
          4.55713e+07 4.5187e+07 4.47992e+07 4.44079e+07 4.40131e+07 4.36147e+07 4.32127e+07 4.28072e+07 4.2398e+07 4.1985e+07 4.15684e+07 4.11481e+07
          4.07239e+07 4.02959e+07 3.98641e+07 3.94284e+07 3.89887e+07 3.85451e+07 3.80976e+07 3.76459e+07 3.71903e+07 3.67305e+07 3.62665e+07 3.57984e+07
          3.53261e+07 3.48496e+07 3.43687e+07 3.38835e+07 3.3394e+07 3.29e+07 3.24016e+07 3.18987e+07 3.13913e+07 3.08793e+07 3.03627e+07 2.98412e+07
          2.93147e+07 2.87832e+07 2.82459e+07 2.76719e+07 2.2e+07 2.76719e+07 2.82459e+07 2.87832e+07 2.93147e+07 2.98412e+07 3.03627e+07 3.08793e+07
          3.13913e+07 3.18987e+07 3.24016e+07 3.29e+07 3.3394e+07 3.38835e+07 3.43687e+07 3.48496e+07 3.53261e+07 3.57984e+07 3.62665e+07 3.67305e+07
          3.71903e+07 3.76459e+07 3.80976e+07 3.85451e+07 3.89887e+07 3.94284e+07 3.98641e+07 4.02959e+07 4.07239e+07 4.11481e+07 4.15684e+07 4.1985e+07
          4.2398e+07 4.28072e+07 4.32127e+07 4.36147e+07 4.40131e+07 4.44079e+07 4.47992e+07 4.5187e+07 4.55713e+07 4.59522e+07 4.63297e+07 4.67039e+07
          4.70747e+07 4.74422e+07 4.78064e+07 4.81675e+07 4.85242e+07 4.88858e+07 4.9367e+07
        </DataArray>
        <DataArray type="Float32" Name="pressure_g" NumberOfComponents="1" format="ascii">
          4.95e+07 4.90066e+07 4.95e+07 4.89918e+07 4.86526e+07 4.86402e+07 4.82949e+07 4.82821e+07 4.79339e+07 4.79212e+07 4.75697e+07 4.75569e+07
          4.72022e+07 4.71894e+07 4.68314e+07 4.68186e+07 4.64572e+07 4.64445e+07 4.60797e+07 4.6067e+07 4.56988e+07 4.56861e+07 4.53145e+07 4.53017e+07
          4.49267e+07 4.49139e+07 4.45354e+07 4.45226e+07 4.41406e+07 4.41278e+07 4.37422e+07 4.37295e+07 4.33403e+07 4.33275e+07 4.29347e+07 4.2922e+07
          4.25255e+07 4.25127e+07 4.21126e+07 4.20998e+07 4.1696e+07 4.16832e+07 4.12756e+07 4.12628e+07 4.08514e+07 4.08387e+07 4.04235e+07 4.04107e+07
          3.99916e+07 3.99789e+07 3.95559e+07 3.95432e+07 3.91163e+07 3.91035e+07 3.86727e+07 3.86599e+07 3.82251e+07 3.82123e+07 3.77735e+07 3.77607e+07
          3.73178e+07 3.7305e+07 3.6858e+07 3.68452e+07 3.63941e+07 3.63813e+07 3.5926e+07 3.59132e+07 3.54537e+07 3.54409e+07 3.49771e+07 3.49643e+07
          3.44962e+07 3.44835e+07 3.40111e+07 3.39983e+07 3.35215e+07 3.35087e+07 3.30275e+07 3.30148e+07 3.25291e+07 3.25164e+07 3.20262e+07 3.20135e+07
          3.15188e+07 3.15061e+07 3.10068e+07 3.09941e+07 3.04902e+07 3.04775e+07 2.99688e+07 2.9956e+07 2.94423e+07 2.94296e+07 2.89102e+07 2.88975e+07