<?xml version="1.0"?>
<VTKFile type="UnstructuredGrid" version="0.1" byte_order="LittleEndian">
  <UnstructuredGrid>
    <Piece NumberOfCells="1000" NumberOfPoints="1111">
      <CellData Scalars="pressure_water">
        <DataArray type="Float32" Name="pressure_water" NumberOfComponents="1" format="ascii">
          4.95e+07 4.85821e+07 4.78201e+07 4.72113e+07 4.66515e+07 4.61011e+07 4.55524e+07 4.5004e+07 4.44556e+07 4.39072e+07 4.33587e+07 4.28102e+07
          4.22617e+07 4.17132e+07 4.11647e+07 4.06161e+07 4.00676e+07 3.95191e+07 3.89706e+07 3.84221e+07 3.78736e+07 3.73252e+07 3.67768e+07 3.62284e+07
          3.56801e+07 3.51318e+07 3.45835e+07 3.40354e+07 3.34873e+07 3.29393e+07 3.23914e+07 3.18435e+07 3.12958e+07 3.07482e+07 3.02006e+07 2.96532e+07
          2.91058e+07 2.85586e+07 2.80108e+07 2.74594e+07 2.69037e+07 2.63456e+07 2.57881e+07 2.52351e+07 2.4692e+07 2.41656e+07 2.36643e+07 2.31977e+07
          2.27744e+07 2.23998e+07 2.20705e+07 2.24215e+07 2.2823e+07 2.32746e+07 2.37684e+07 2.42941e+07 2.48414e+07 2.5402e+07 2.59693e+07 2.65385e+07
          2.71062e+07 2.76698e+07 2.82286e+07 2.87842e+07 2.93399e+07 2.98958e+07 3.04517e+07 3.10078e+07 3.1564e+07 3.21202e+07 3.26766e+07 3.3233e+07
          3.37895e+07 3.4346e+07 3.49027e+07 3.54594e+07 3.60161e+07 3.65729e+07 3.71297e+07 3.76865e+07 3.82433e+07 3.88002e+07 3.93571e+07 3.9914e+07
          4.04709e+07 4.10278e+07 4.15847e+07 4.21416e+07 4.26984e+07 4.32553e+07 4.38122e+07 4.4369e+07 4.49258e+07 4.54826e+07 4.60398e+07 4.65988e+07
          4.71677e+07 4.7788e+07 4.85653e+07 4.95e+07 4.95e+07 4.85615e+07 4.78025e+07 4.71996e+07 4.66399e+07 4.60895e+07 4.55407e+07 4.49923e+07
          4.4444e+07 4.38955e+07 4.33471e+07 4.27986e+07 4.22501e+07 4.17015e+07 4.1153e+07 4.06045e+07 4.00559e+07 3.95074e+07 3.89589e+07 3.84104e+07
          3.7862e+07 3.73135e+07 3.67651e+07 3.62167e+07 3.56684e+07 3.51201e+07 3.45719e+07 3.40238e+07 3.34757e+07 3.29277e+07 3.23797e+07 3.18319e+07
          3.12842e+07 3.07365e+07 3.0189e+07 2.96415e+07 2.90942e+07 2.8547e+07 2.79991e+07 2.74477e+07 2.6892e+07 2.63339e+07 2.57763e+07 2.52233e+07
          2.46802e+07 2.41538e+07 2.36525e+07 2.31858e+07 2.27626e+07 2.23879e+07 2.20579e+07 2.24096e+07 2.28111e+07 2.32627e+07 2.37566e+07 2.42823e+07
          2.48296e+07 2.53902e+07 2.59575e+07 2.65268e+07 2.70945e+07 2.76582e+07 2.8217e+07 2.87726e+07 2.93283e+07 2.98842e+07 3.04401e+07 3.09962e+07
          3.15523e+07 3.21086e+07 3.26649e+07 3.32213e+07 3.37778e+07 3.43344e+07 3.4891e+07 3.54477e+07 3.60044e+07 3.65612e+07 3.7118e+07 3.76749e+07
          3.82317e+07 3.87886e+07 3.93455e+07 3.99023e+07 4.04592e+07 4.10161e+07 4.1573e+07 4.21299e+07 4.26868e+07 4.32437e+07 4.38005e+07 4.43573e+07
          4.49141e+07 4.5471e+07 4.60282e+07 4.65872e+07 4.7156e+07 4.777e+07 4.85447e+07 4.95e+07 4.95e+07 4.8541e+07 4.77898e+07 4.71881e+07
          4.66283e+07 4.60778e+07 4.55291e+07 4.49807e+07 4.44323e+07 4.38839e+07 4.33354e+07 4.27869e+07 4.22384e+07 4.16899e+07 4.11413e+07 4.05928e+07
          4.00443e+07 3.94958e+07 3.89473e+07 3.83988e+07 3.78503e+07 3.73019e+07 3.67535e+07 3.62051e+07 3.56568e+07 3.51085e+07 3.45603e+07 3.40121e+07
          3.3464e+07 3.2916e+07 3.23681e+07 3.18203e+07 3.12725e+07 3.07249e+07 3.01773e+07 2.96299e+07 2.90826e+07 2.85353e+07 2.79875e+07 2.7436e+07
          2.68803e+07 2.63222e+07 2.57646e+07 2.52116e+07 2.46684e+07 2.41419e+07 2.36406e+07 2.31739e+07 2.27506e+07 2.2376e+07 2.20446e+07 2.23976e+07
          2.27991e+07 2.32508e+07 2.37447e+07 2.42704e+07 2.48178e+07 2.53784e+07 2.59458e+07 2.65151e+07 2.70828e+07 2.76465e+07 2.82053e+07 2.8761e+07
          2.93167e+07 2.98725e+07 3.04285e+07 3.09845e+07 3.15407e+07 3.20969e+07 3.26533e+07 3.32097e+07 3.37662e+07 3.43228e+07 3.48794e+07 3.54361e+07
          3.59928e+07 3.65496e+07 3.71064e+07 3.76632e+07 3.82201e+07 3.87769e+07 3.93338e+07 3.98907e+07 4.04476e+07 4.10045e+07 4.15614e+07 4.21183e+07
          4.26751e+07 4.3232e+07 4.37888e+07 4.43457e+07 4.49025e+07 4.54593e+07 4.60165e+07 4.65756e+07 4.71445e+07 4.77572e+07 4.85242e+07 4.95e+07
          4.95e+07 4.85213e+07 4.77776e+07 4.71765e+07 4.66167e+07 4.60662e+07 4.55174e+07 4.4969e+07 4.44206e+07 4.38722e+07 4.33238e+07 4.27753e+07
          4.22268e+07 4.16782e+07 4.11297e+07 4.05812e+07 4.00326e+07 3.94841e+07 3.89356e+07 3.83871e+07 3.78387e+07 3.72902e+07 3.67418e+07 3.61935e+07
          3.56451e+07 3.50969e+07 3.45486e+07 3.40005e+07 3.34524e+07 3.29044e+07 3.23565e+07 3.18086e+07 3.12609e+07 3.07133e+07 3.01657e+07 2.96183e+07
          2.90709e+07 2.85237e+07 2.79758e+07 2.74244e+07 2.68686e+07 2.63104e+07 2.57528e+07 2.51998e+07 2.46566e+07 2.41301e+07 2.36287e+07 2.3162e+07
          2.27386e+07 2.2364e+07 2.20304e+07 2.23856e+07 2.27872e+07 2.32389e+07 2.37328e+07 2.42586e+07 2.4806e+07 2.53667e+07 2.59341e+07 2.65034e+07
          2.70711e+07 2.76349e+07 2.81937e+07 2.87493e+07 2.93051e+07 2.98609e+07 3.04168e+07 3.09729e+07 3.15291e+07 3.20853e+07 3.26416e+07 3.31981e+07
          3.37546e+07 3.43111e+07 3.48678e+07 3.54244e+07 3.59812e+07 3.65379e+07 3.70947e+07 3.76516e+07 3.82084e+07 3.87653e+07 3.93222e+07 3.9879e+07
          4.04359e+07 4.09928e+07 4.15497e+07 4.21066e+07 4.26635e+07 4.32203e+07 4.37772e+07 4.4334e+07 4.48908e+07 4.54477e+07 4.60049e+07 4.6564e+07
          4.71329e+07 4.77451e+07 4.85044e+07 4.95e+07 4.95e+07 4.85035e+07 4.77659e+07 4.7165e+07 4.66051e+07 4.60545e+07 4.55058e+07 4.49574e+07
          4.4409e+07 4.38606e+07 4.33121e+07 4.27636e+07 4.22151e+07 4.16666e+07 4.1118e+07 4.05695e+07 4.0021e+07 3.94725e+07 3.8924e+07 3.83755e+07
          3.7827e+07 3.72786e+07 3.67302e+07 3.61818e+07 3.56335e+07 3.50852e+07 3.4537e+07 3.39888e+07 3.34408e+07 3.28928e+07 3.23448e+07 3.1797e+07
          3.12493e+07 3.07016e+07 3.01541e+07 2.96066e+07 2.90593e+07 2.85121e+07 2.79642e+07 2.74127e+07 2.68569e+07 2.62987e+07 2.57411e+07 2.5188e+07
          2.46447e+07 2.41182e+07 2.36167e+07 2.31499e+07 2.27266e+07 2.2352e+07 2.20156e+07 2.23736e+07 2.27751e+07 2.32268e+07 2.37209e+07 2.42467e+07
          2.47941e+07 2.53549e+07 2.59223e+07 2.64916e+07 2.70594e+07 2.76232e+07 2.81821e+07 2.87377e+07 2.92934e+07 2.98493e+07 3.04052e+07 3.09613e+07
          3.15174e+07 3.20737e+07 3.263e+07 3.31864e+07 3.37429e+07 3.42995e+07 3.48561e+07 3.54128e+07 3.59695e+07 3.65263e+07 3.70831e+07 3.76399e+07
          3.81968e+07 3.87536e+07 3.93105e+07 3.98674e+07 4.04243e+07 4.09812e+07 4.15381e+07 4.2095e+07 4.26518e+07 4.32087e+07 4.37655e+07 4.43224e+07
          4.48792e+07 4.5436e+07 4.59932e+07 4.65524e+07 4.71214e+07 4.77333e+07 4.84864e+07 4.95e+07 4.94732e+07 4.84882e+07 4.77543e+07 4.71535e+07
          4.65935e+07 4.60428e+07 4.54941e+07 4.49457e+07 4.43973e+07 4.38489e+07 4.33004e+07 4.2752e+07 4.22034e+07 4.16549e+07 4.11064e+07 4.05579e+07
          4.00093e+07 3.94608e+07 3.89123e+07 3.83638e+07 3.78154e+07 3.72669e+07 3.67185e+07 3.61702e+07 3.56218e+07 3.50736e+07 3.45254e+07 3.39772e+07
          3.34291e+07 3.28811e+07 3.23332e+07 3.17854e+07 3.12376e+07 3.069e+07 3.01424e+07 2.9595e+07 2.90477e+07 2.85005e+07 2.79526e+07 2.7401e+07
          2.68452e+07 2.6287e+07 2.57293e+07 2.51761e+07 2.46328e+07 2.41062e+07 2.36047e+07 2.31379e+07 2.27145e+07 2.23399e+07 2.2e+07 2.23615e+07
          2.2763e+07 2.32148e+07 2.37089e+07 2.42347e+07 2.47823e+07 2.5343e+07 2.59105e+07 2.64799e+07 2.70477e+07 2.76115e+07 2.81704e+07 2.87261e+07
          2.92818e+07 2.98376e+07 3.03936e+07 3.09496e+07 3.15058e+07 3.2062e+07 3.26184e+07 3.31748e+07 3.37313e+07 3.42879e+07 3.48445e+07 3.54012e+07
          3.59579e+07 3.65146e+07 3.70714e+07 3.76283e+07 3.81851e+07 3.8742e+07 3.92989e+07 3.98557e+07 4.04126e+07 4.09695e+07 4.15264e+07 4.20833e+07
          4.26402e+07 4.3197e+07 4.37539e+07 4.43107e+07 4.48675e+07 4.54244e+07 4.59816e+07 4.65408e+07 4.71099e+07 4.77217e+07 4.84708e+07 4.94732e+07
          4.94476e+07 4.84745e+07 4.77428e+07 4.7142e+07 4.65818e+07 4.60312e+07 4.54825e+07 4.49341e+07 4.43857e+07 4.38372e+07 4.32888e+07 4.27403e+07
          4.21918e+07 4.16433e+07 4.10947e+07 4.05462e+07 3.99977e+07 3.94492e+07 3.89007e+07 3.83522e+07 3.78037e+07 3.72553e+07 3.67069e+07 3.61585e+07
          3.56102e+07 3.50619e+07 3.45137e+07 3.39656e+07 3.34175e+07 3.28695e+07 3.23216e+07 3.17737e+07 3.1226e+07 3.06784e+07 3.01308e+07 2.95834e+07
          2.90361e+07 2.84888e+07 2.79409e+07 2.73893e+07 2.68335e+07 2.62752e+07 2.57175e+07 2.51643e+07 2.46209e+07 2.40942e+07 2.35927e+07 2.31258e+07
          2.27023e+07 2.23278e+07 2.2e+07 2.23493e+07 2.27508e+07 2.32027e+07 2.36968e+07 2.42228e+07 2.47704e+07 2.53312e+07 2.58988e+07 2.64682e+07
          2.7036e+07 2.75999e+07 2.81588e+07 2.87145e+07 2.92702e+07 2.9826e+07 3.03819e+07 3.0938e+07 3.14942e+07 3.20504e+07 3.26067e+07 3.31632e+07
          3.37197e+07 3.42762e+07 3.48328e+07 3.53895e+07 3.59462e+07 3.6503e+07 3.70598e+07 3.76166e+07 3.81735e+07 3.87303e+07 3.92872e+07 3.98441e+07
          4.0401e+07 4.09579e+07 4.15148e+07 4.20716e+07 4.26285e+07 4.31854e+07 4.37422e+07 4.4299e+07 4.48558e+07 4.54127e+07 4.59699e+07 4.65291e+07
          4.70984e+07 4.77102e+07 4.84569e+07 4.94474e+07 4.9423e+07 4.84616e+07 4.77314e+07 4.71304e+07 4.65702e+07 4.60195e+07 4.54708e+07 4.49224e+07
          4.4374e+07 4.38256e+07 4.32771e+07 4.27286e+07 4.21801e+07 4.16316e+07 4.10831e+07 4.05346e+07 3.9986e+07 3.94375e+07 3.8889e+07 3.83405e+07
          3.77921e+07 3.72437e+07 3.66952e+07 3.61469e+07 3.55986e+07 3.50503e+07 3.45021e+07 3.39539e+07 3.34058e+07 3.28578e+07 3.23099e+07 3.17621e+07
          3.12144e+07 3.06667e+07 3.01192e+07 2.95718e+07 2.90244e+07 2.84772e+07 2.79293e+07 2.73777e+07 2.68218e+07 2.62635e+07 2.57057e+07 2.51524e+07
          2.4609e+07 2.40822e+07 2.35806e+07 2.31136e+07 2.26901e+07 2.23156e+07 2.2e+07 2.23371e+07 2.27386e+07 2.31905e+07 2.36848e+07 2.42108e+07
          2.47585e+07 2.53194e+07 2.5887e+07 2.64564e+07 2.70243e+07 2.75882e+07 2.81471e+07 2.87028e+07 2.92585e+07 2.98144e+07 3.03703e+07 3.09264e+07
          3.14825e+07 3.20388e+07 3.25951e+07 3.31515e+07 3.3708e+07 3.42646e+07 3.48212e+07 3.53779e+07 3.59346e+07 3.64914e+07 3.70482e+07 3.7605e+07
          3.81618e+07 3.87187e+07 3.92756e+07 3.98325e+07 4.03893e+07 4.09462e+07 4.15031e+07 4.206e+07 4.26169e+07 4.31737e+07 4.37306e+07 4.42874e+07
          4.48442e+07 4.5401e+07 4.59583e+07 4.65175e+07 4.70869e+07 4.76988e+07 4.8444e+07 4.94228e+07 4.93996e+07 4.84495e+07 4.77199e+07 4.71188e+07
          4.65585e+07 4.60079e+07 4.54591e+07 4.49107e+07 4.43623e+07 4.38139e+07 4.32655e+07 4.2717e+07 4.21685e+07 4.162e+07 4.10714e+07 4.05229e+07
          3.99744e+07 3.94259e+07 3.88774e+07 3.83289e+07 3.77804e+07 3.7232e+07 3.66836e+07 3.61352e+07 3.55869e+07 3.50387e+07 3.44904e+07 3.39423e+07
          3.33942e+07 3.28462e+07 3.22983e+07 3.17505e+07 3.12027e+07 3.06551e+07 3.01076e+07 2.95601e+07 2.90128e+07 2.84656e+07 2.79176e+07 2.7366e+07
          2.681e+07 2.62517e+07 2.56938e+07 2.51405e+07 2.4597e+07 2.40702e+07 2.35684e+07 2.31014e+07 2.26778e+07 2.23034e+07 2.2e+07 2.23248e+07
          2.27263e+07 2.31783e+07 2.36726e+07 2.41988e+07 2.47465e+07 2.53075e+07 2.58752e+07 2.64447e+07 2.70126e+07 2.75765e+07 2.81355e+07 2.86912e+07
          2.92469e+07 2.98027e+07 3.03587e+07 3.09147e+07 3.14709e+07 3.20271e+07 3.25835e+07 3.31399e+07 3.36964e+07 3.42529e+07 3.48096e+07 3.53662e+07
          3.5923e+07 3.64797e+07 3.70365e+07 3.75933e+07 3.81502e+07 3.8707e+07 3.92639e+07 3.98208e+07 4.03777e+07 4.09346e+07 4.14915e+07 4.20483e+07
          4.26052e+07 4.31621e+07 4.37189e+07 4.42757e+07 4.48325e+07 4.53894e+07 4.59466e+07 4.65059e+07 4.70753e+07 4.76873e+07 4.84318e+07 4.93994e+07
          4.93789e+07 4.8438e+07 4.77084e+07 4.71072e+07 4.65469e+07 4.59962e+07 4.54475e+07 4.48991e+07 4.43507e+07 4.38023e+07 4.32538e+07 4.27053e+07
          4.21568e+07 4.16083e+07 4.10598e+07 4.05113e+07 3.99627e+07 3.94142e+07 3.88657e+07 3.83173e+07 3.77688e+07 3.72204e+07 3.6672e+07 3.61236e+07
          3.55753e+07 3.5027e+07 3.44788e+07 3.39306e+07 3.33826e+07 3.28346e+07 3.22867e+07 3.17388e+07 3.11911e+07 3.06435e+07 3.00959e+07 2.95485e+07
          2.90012e+07 2.84539e+07 2.7906e+07 2.73543e+07 2.67983e+07 2.62399e+07 2.5682e+07 2.51286e+07 2.4585e+07 2.40581e+07 2.35563e+07 2.30891e+07
          2.26655e+07 2.2291e+07 2.2e+07 2.23124e+07 2.27139e+07 2.3166e+07 2.36605e+07 2.41867e+07 2.47346e+07 2.52956e+07 2.58634e+07 2.64329e+07
          2.70009e+07 2.75649e+07 2.81239e+07 2.86796e+07 2.92353e+07 2.97911e+07 3.03471e+07 3.09031e+07 3.14593e+07 3.20155e+07 3.25718e+07 3.31283e+07
          3.36847e+07 3.42413e+07 3.47979e+07 3.53546e+07 3.59113e+07 3.64681e+07 3.70249e+07 3.75817e+07 3.81385e+07 3.86954e+07 3.92523e+07 3.98092e+07
          4.0366e+07 4.09229e+07 4.14798e+07 4.20367e+07 4.25936e+07 4.31504e+07 4.37072e+07 4.42641e+07 4.48209e+07 4.53777e+07 4.59349e+07 4.64942e+07
          4.70636e+07 4.76758e+07 4.84203e+07 4.93785e+07
        </DataArray>
        <DataArray type="Float32" Name="pressure_oil" NumberOfComponents="1" format="ascii">
          4.95e+07 4.85821e+07 4.78201e+07 4.72113e+07 4.66515e+07 4.61011e+07 4.55524e+07 4.5004e+07 4.44556e+07 4.39072e+07 4.33587e+07 4.28102e+07
          4.22617e+07 4.17132e+07 4.11647e+07 4.06161e+07 4.00676e+07 3.95191e+07 3.89706e+07 3.84221e+07 3.78736e+07 3.73252e+07 3.67768e+07 3.62284e+07
          3.56801e+07 3.51318e+07 3.45835e+07 3.40354e+07 3.34873e+07 3.29393e+07 3.23914e+07 3.18435e+07 3.12958e+07 3.07482e+07 3.02006e+07 2.96532e+07
          2.91058e+07 2.85586e+07 2.80108e+07 2.74594e+07 2.69037e+07 2.63456e+07 2.57881e+07 2.52351e+07 2.4692e+07 2.41656e+07 2.36643e+07 2.31977e+07
          2.27744e+07 2.23998e+07 2.20705e+07 2.24215e+07 2.2823e+07 2.32746e+07 2.37684e+07 2.42941e+07 2.48414e+07 2.5402e+07 2.59693e+07 2.65385e+07
          2.71062e+07 2.76698e+07 2.82286e+07 2.87842e+07 2.93399e+07 2.98958e+07 3.04517e+07 3.10078e+07 3.1564e+07 3.21202e+07 3.26766e+07 3.3233e+07
          3.37895e+07 3.4346e+07 3.49027e+07 3.54594e+07 3.60161e+07 3.65729e+07 3.71297e+07 3.76865e+07 3.82433e+07 3.88002e+07 3.93571e+07 3.9914e+07
          4.04709e+07 4.10278e+07 4.15847e+07 4.21416e+07 4.26984e+07 4.32553e+07 4.38122e+07 4.4369e+07 4.49258e+07 4.54826e+07 4.60398e+07 4.65988e+07
          4.71677e+07 4.7788e+07 4.85653e+07 4.95e+07 4.95e+07 4.85615e+07 4.78025e+07 4.71996e+07 4.66399e+07 4.60895e+07 4.55407e+07 4.49923e+07
          4.4444e+07 4.38955e+07 4.33471e+07 4.27986e+07 4.22501e+07 4.17015e+07 4.1153e+07 4.06045e+07 4.00559e+07 3.95074e+07 3.89589e+07 3.84104e+07
          3.7862e+07 3.73135e+07 3.67651e+07 3.62167e+07 3.56684e+07 3.51201e+07 3.45719e+07 3.40238e+07 3.34757e+07 3.29277e+07 3.23797e+07 3.18319e+07
          3.12842e+07 3.07365e+07 3.0189e+07 2.96415e+07 2.90942e+07 2.8547e+07 2.79991e+07 2.74477e+07 2.6892e+07 2.63339e+07 2.57763e+07 2.52233e+07
          2.46802e+07 2.41538e+07 2.36525e+07 2.31858e+07 2.27626e+07 2.23879e+07 2.20579e+07 2.24096e+07 2.28111e+07 2.32627e+07 2.37566e+07 2.42823e+07
          2.48296e+07 2.53902e+07 2.59575e+07 2.65268e+07 2.70945e+07 2.76582e+07 2.8217e+07 2.87726e+07 2.93283e+07 2.98842e+07 3.04401e+07 3.09962e+07
          3.15523e+07 3.21086e+07 3.26649e+07 3.32213e+07 3.37778e+07 3.43344e+07 3.4891e+07 3.54477e+07 3.60044e+07 3.65612e+07 3.7118e+07 3.76749e+07
          3.82317e+07 3.87886e+07 3.93455e+07 3.99023e+07 4.04592e+07 4.10161e+07 4.1573e+07 4.21299e+07 4.26868e+07 4.32437e+07 4.38005e+07 4.43573e+07
          4.49141e+07 4.5471e+07 4.60282e+07 4.65872e+07 4.7156e+07 4.777e+07 4.85447e+07 4.95e+07 4.95e+07 4.8541e+07 4.77898e+07 4.71881e+07
          4.66283e+07 4.60778e+07 4.55291e+07 4.49807e+07 4.44323e+07 4.38839e+07 4.33354e+07 4.27869e+07 4.22384e+07 4.16899e+07 4.11413e+07 4.05928e+07
          4.00443e+07 3.94958e+07 3.89473e+07 3.83988e+07 3.78503e+07 3.73019e+07 3.67535e+07 3.62051e+07 3.56568e+07 3.51085e+07 3.45603e+07 3.40121e+07
          3.3464e+07 3.2916e+07 3.23681e+07 3.18203e+07 3.12725e+07 3.07249e+07 3.01773e+07 2.96299e+07 2.90826e+07 2.85353e+07 2.79875e+07 2.7436e+07
          2.68803e+07 2.63222e+07 2.57646e+07 2.52116e+07 2.46684e+07 2.41419e+07 2.36406e+07 2.31739e+07 2.27506e+07 2.2376e+07 2.20446e+07 2.23976e+07
          2.27991e+07 2.32508e+07 2.37447e+07 2.42704e+07 2.48178e+07 2.53784e+07 2.59458e+07 2.65151e+07 2.70828e+07 2.76465e+07 2.82053e+07 2.8761e+07
          2.93167e+07 2.98725e+07 3.04285e+07 3.09845e+07 3.15407e+07 3.20969e+07 3.26533e+07 3.32097e+07 3.37662e+07 3.43228e+07 3.48794e+07 3.54361e+07
          3.59928e+07 3.65496e+07 3.71064e+07 3.76632e+07 3.82201e+07 3.87769e+07 3.93338e+07 3.98907e+07 4.04476e+07 4.10045e+07 4.15614e+07 4.21183e+07
          4.26751e+07 4.3232e+07 4.37888e+07 4.43457e+07 4.49025e+07 4.54593e+07 4.60165e+07 4.65756e+07 4.71445e+07 4.77572e+07 4.85242e+07 4.95e+07
          4.95e+07 4.85213e+07 4.77776e+07 4.71765e+07 4.66167e+07 4.60662e+07 4.55174e+07 4.4969e+07 4.44206e+07 4.38722e+07 4.33238e+07 4.27753e+07
          4.22268e+07 4.16782e+07 4.11297e+07 4.05812e+07 4.00326e+07 3.94841e+07 3.89356e+07 3.83871e+07 3.78387e+07 3.72902e+07 3.67418e+07 3.61935e+07
          3.56451e+07 3.50969e+07 3.45486e+07 3.40005e+07 3.34524e+07 3.29044e+07 3.23565e+07 3.18086e+07 3.12609e+07 3.07133e+07 3.01657e+07 2.96183e+07
          2.90709e+07 2.85237e+07 2.79758e+07 2.74244e+07 2.68686e+07 2.63104e+07 2.57528e+07 2.51998e+07 2.46566e+07 2.41301e+07 2.36287e+07 2.3162e+07
          2.27386e+07 2.2364e+07 2.20304e+07 2.23856e+07 2.27872e+07 2.32389e+07 2.37328e+07 2.42586e+07 2.4806e+07 2.53667e+07 2.59341e+07 2.65034e+07
          2.70711e+07 2.76349e+07 2.81937e+07 2.87493e+07 2.93051e+07 2.98609e+07 3.04168e+07 3.09729e+07 3.15291e+07 3.20853e+07 3.26416e+07 3.31981e+07
          3.37546e+07 3.43111e+07 3.48678e+07 3.54244e+07 3.59812e+07 3.65379e+07 3.70947e+07 3.76516e+07 3.82084e+07 3.87653e+07 3.93222e+07 3.9879e+07
          4.04359e+07 4.09928e+07 4.15497e+07 4.21066e+07 4.26635e+07 4.32203e+07 4.37772e+07 4.4334e+07 4.48908e+07 4.54477e+07 4.60049e+07 4.6564e+07
          4.71329e+07 4.77451e+07 4.85044e+07 4.95e+07 4.95e+07 4.85035e+07 4.77659e+07 4.7165e+07 4.66051e+07 4.60545e+07 4.55058e+07 4.49574e+07
          4.4409e+07 4.38606e+07 4.33121e+07 4.27636e+07 4.22151e+07 4.16666e+07 4.1118e+07 4.05695e+07 4.0021e+07 3.94725e+07 3.8924e+07 3.83755e+07
          3.7827e+07 3.72786e+07 3.67302e+07 3.61818e+07 3.56335e+07 3.50852e+07 3.4537e+07 3.39888e+07 3.34408e+07 3.28928e+07 3.23448e+07 3.1797e+07
          3.12493e+07 3.07016e+07 3.01541e+07 2.96066e+07 2.90593e+07 2.85121e+07 2.79642e+07 2.74127e+07 2.68569e+07 2.62987e+07 2.57411e+07 2.5188e+07
          2.46447e+07 2.41182e+07 2.36167e+07 2.31499e+07 2.27266e+07 2.2352e+07 2.20156e+07 2.23736e+07 2.27751e+07 2.32268e+07 2.37209e+07 2.42467e+07
          2.47941e+07 2.53549e+07 2.59223e+07 2.64916e+07 2.70594e+07 2.76232e+07 2.81821e+07 2.87377e+07 2.92934e+07 2.98493e+07 3.04052e+07 3.09613e+07
          3.15174e+07 3.20737e+07 3.263e+07 3.31864e+07 3.37429e+07 3.42995e+07 3.48561e+07 3.54128e+07 3.59695e+07 3.65263e+07 3.70831e+07 3.76399e+07
          3.81968e+07 3.87536e+07 3.93105e+07 3.98674e+07 4.04243e+07 4.09812e+07 4.15381e+07 4.2095e+07 4.26518e+07 4.32087e+07 4.37655e+07 4.43224e+07
          4.48792e+07 4.5436e+07 4.59932e+07 4.65524e+07 4.71214e+07 4.77333e+07 4.84864e+07 4.95e+07 4.94732e+07 4.84882e+07 4.77543e+07 4.71535e+07
          4.65935e+07 4.60428e+07 4.54941e+07 4.49457e+07 4.43973e+07 4.38489e+07 4.33004e+07 4.2752e+07 4.22034e+07 4.16549e+07 4.11064e+07 4.05579e+07
          4.00093e+07 3.94608e+07 3.89123e+07 3.83638e+07 3.78154e+07 3.72669e+07 3.67185e+07 3.61702e+07 3.56218e+07 3.50736e+07 3.45254e+07 3.39772e+07
          3.34291e+07 3.28811e+07 3.23332e+07 3.17854e+07 3.12376e+07 3.069e+07 3.01424e+07 2.9595e+07 2.90477e+07 2.85005e+07 2.79526e+07 2.7401e+07
          2.68452e+07 2.6287e+07 2.57293e+07 2.51761e+07 2.46328e+07 2.41062e+07 2.36047e+07 2.31379e+07 2.27145e+07 2.23399e+07 2.2e+07 2.23615e+07
          2.2763e+07 2.32148e+07 2.37089e+07 2.42347e+07 2.47823e+07 2.5343e+07 2.59105e+07 2.64799e+07 2.70477e+07 2.76115e+07 2.81704e+07 2.87261e+07
          2.92818e+07 2.98376e+07 3.03936e+07 3.09496e+07 3.15058e+07 3.2062e+07 3.26184e+07 3.31748e+07 3.37313e+07 3.42879e+07 3.48445e+07 3.54012e+07
          3.59579e+07 3.65146e+07 3.70714e+07 3.76283e+07 3.81851e+07 3.8742e+07 3.92989e+07 3.98557e+07 4.04126e+07 4.09695e+07 4.15264e+07 4.20833e+07
          4.26402e+07 4.3197e+07 4.37539e+07 4.43107e+07 4.48675e+07 4.54244e+07 4.59816e+07 4.65408e+07 4.71099e+07 4.77217e+07 4.84708e+07 4.94732e+07
          4.94476e+07 4.84745e+07 4.77428e+07 4.7142e+07 4.65818e+07 4.60312e+07 4.54825e+07 4.49341e+07 4.43857e+07 4.38372e+07 4.32888e+07 4.27403e+07
          4.21918e+07 4.16433e+07 4.10947e+07 4.05462e+07 3.99977e+07 3.94492e+07 3.89007e+07 3.83522e+07 3.78037e+07 3.72553e+07 3.67069e+07 3.61585e+07
          3.56102e+07 3.50619e+07 3.45137e+07 3.39656e+07 3.34175e+07 3.28695e+07 3.23216e+07 3.17737e+07 3.1226e+07 3.06784e+07 3.01308e+07 2.95834e+07
          2.90361e+07 2.84888e+07 2.79409e+07 2.73893e+07 2.68335e+07 2.62752e+07 2.57175e+07 2.51643e+07 2.46209e+07 2.40942e+07 2.35927e+07 2.31258e+07
          2.27023e+07 2.23278e+07 2.2e+07 2.23493e+07 2.27508e+07 2.32027e+07 2.36968e+07 2.42228e+07 2.47704e+07 2.53312e+07 2.58988e+07 2.64682e+07
          2.7036e+07 2.75999e+07 2.81588e+07 2.87145e+07 2.92702e+07 2.9826e+07 3.03819e+07 3.0938e+07 3.14942e+07 3.20504e+07 3.26067e+07 3.31632e+07
          3.37197e+07 3.42762e+07 3.48328e+07 3.53895e+07 3.59462e+07 3.6503e+07 3.70598e+07 3.76166e+07 3.81735e+07 3.87303e+07 3.92872e+07 3.98441e+07
          4.0401e+07 4.09579e+07 4.15148e+07 4.20716e+07 4.26285e+07 4.31854e+07 4.37422e+07 4.4299e+07 4.48558e+07 4.54127e+07 4.59699e+07 4.65291e+07
          4.70984e+07 4.77102e+07 4.84569e+07 4.94474e+07 4.9423e+07 4.84616e+07 4.77314e+07 4.71304e+07 4.65702e+07 4.60195e+07 4.54708e+07 4.49224e+07
          4.4374e+07 4.38256e+07 4.32771e+07 4.27286e+07 4.21801e+07 4.16316e+07 4.10831e+07 4.05346e+07 3.9986e+07 3.94375e+07 3.8889e+07 3.83405e+07
          3.77921e+07 3.72437e+07 3.66952e+07 3.61469e+07 3.55986e+07 3.50503e+07 3.45021e+07 3.39539e+07 3.34058e+07 3.28578e+07 3.23099e+07 3.17621e+07
          3.12144e+07 3.06667e+07 3.01192e+07 2.95718e+07 2.90244e+07 2.84772e+07 2.79293e+07 2.73777e+07 2.68218e+07 2.62635e+07 2.57057e+07 2.51524e+07
          2.4609e+07 2.40822e+07 2.35806e+07 2.31136e+07 2.26901e+07 2.23156e+07 2.2e+07 2.23371e+07 2.27386e+07 2.31905e+07 2.36848e+07 2.42108e+07
          2.47585e+07 2.53194e+07 2.5887e+07 2.64564e+07 2.70243e+07 2.75882e+07 2.81471e+07 2.87028e+07 2.92585e+07 2.98144e+07 3.03703e+07 3.09264e+07
          3.14825e+07 3.20388e+07 3.25951e+07 3.31515e+07 3.3708e+07 3.42646e+07 3.48212e+07 3.53779e+07 3.59346e+07 3.64914e+07 3.70482e+07 3.7605e+07
          3.81618e+07 3.87187e+07 3.92756e+07 3.98325e+07 4.03893e+07 4.09462e+07 4.15031e+07 4.206e+07 4.26169e+07 4.31737e+07 4.37306e+07 4.42874e+07
          4.48442e+07 4.5401e+07 4.59583e+07 4.65175e+07 4.70869e+07 4.76988e+07 4.8444e+07 4.94228e+07 4.93996e+07 4.84495e+07 4.77199e+07 4.71188e+07
          4.65585e+07 4.60079e+07 4.54591e+07 4.49107e+07 4.43623e+07 4.38139e+07 4.32655e+07 4.2717e+07 4.21685e+07 4.162e+07 4.10714e+07 4.05229e+07
          3.99744e+07 3.94259e+07 3.88774e+07 3.83289e+07 3.77804e+07 3.7232e+07 3.66836e+07 3.61352e+07 3.55869e+07 3.50387e+07 3.44904e+07 3.39423e+07
          3.33942e+07 3.28462e+07 3.22983e+07 3.17505e+07 3.12027e+07 3.06551e+07 3.01076e+07 2.95601e+07 2.90128e+07 2.84656e+07 2.79176e+07 2.7366e+07
          2.681e+07 2.62517e+07 2.56938e+07 2.51405e+07 2.4597e+07 2.40702e+07 2.35684e+07 2.31014e+07 2.26778e+07 2.23034e+07 2.2e+07 2.23248e+07
          2.27263e+07 2.31783e+07 2.36726e+07 2.41988e+07 2.47465e+07 2.53075e+07 2.58752e+07 2.64447e+07 2.70126e+07 2.75765e+07 2.81355e+07 2.86912e+07
          2.92469e+07 2.98027e+07 3.03587e+07 3.09147e+07 3.14709e+07 3.20271e+07 3.25835e+07 3.31399e+07 3.36964e+07 3.42529e+07 3.48096e+07 3.53662e+07
          3.5923e+07 3.64797e+07 3.70365e+07 3.75933e+07 3.81502e+07 3.8707e+07 3.92639e+07 3.98208e+07 4.03777e+07 4.09346e+07 4.14915e+07 4.20483e+07
          4.26052e+07 4.31621e+07 4.37189e+07 4.42757e+07 4.48325e+07 4.53894e+07 4.59466e+07 4.65059e+07 4.70753e+07 4.76873e+07 4.84318e+07 4.93994e+07
          4.93789e+07 4.8438e+07 4.77084e+07 4.71072e+07 4.65469e+07 4.59962e+07 4.54475e+07 4.48991e+07 4.43507e+07 4.38023e+07 4.32538e+07 4.27053e+07
          4.21568e+07 4.16083e+07 4.10598e+07 4.05113e+07 3.99627e+07 3.94142e+07 3.88657e+07 3.83173e+07 3.77688e+07 3.72204e+07 3.6672e+07 3.61236e+07
          3.55753e+07 3.5027e+07 3.44788e+07 3.39306e+07 3.33826e+07 3.28346e+07 3.22867e+07 3.17388e+07 3.11911e+07 3.06435e+07 3.00959e+07 2.95485e+07
          2.90012e+07 2.84539e+07 2.7906e+07 2.73543e+07 2.67983e+07 2.62399e+07 2.5682e+07 2.51286e+07 2.4585e+07 2.40581e+07 2.35563e+07 2.30891e+07
          2.26655e+07 2.2291e+07 2.2e+07 2.23124e+07 2.27139e+07 2.3166e+07 2.36605e+07 2.41867e+07 2.47346e+07 2.52956e+07 2.58634e+07 2.64329e+07
          2.70009e+07 2.75649e+07 2.81239e+07 2.86796e+07 2.92353e+07 2.97911e+07 3.03471e+07 3.09031e+07 3.14593e+07 3.20155e+07 3.25718e+07 3.31283e+07
          3.36847e+07 3.42413e+07 3.47979e+07 3.53546e+07 3.59113e+07 3.64681e+07 3.70249e+07 3.75817e+07 3.81385e+07 3.86954e+07 3.92523e+07 3.98092e+07
          4.0366e+07 4.09229e+07 4.14798e+07 4.20367e+07 4.25936e+07 4.31504e+07 4.37072e+07 4.42641e+07 4.48209e+07 4.53777e+07 4.59349e+07 4.64942e+07
          4.70636e+07 4.76758e+07 4.84203e+07 4.93785e+07
        </DataArray>
        <DataArray type="Float32" Name="pressure_gas" NumberOfComponents="1" format="ascii">
          4.95e+07 4.85821e+07 4.78201e+07 4.72113e+07 4.66515e+07 4.61011e+07 4.55524e+07 4.5004e+07 4.44556e+07 4.39072e+07 4.33587e+07 4.28102e+07
          4.22617e+07 4.17132e+07 4.11647e+07 4.06161e+07 4.00676e+07 3.95191e+07 3.89706e+07 3.84221e+07 3.78736e+07 3.73252e+07 3.67768e+07 3.62284e+07
          3.56801e+07 3.51318e+07 3.45835e+07 3.40354e+07 3.34873e+07 3.29393e+07 3.23914e+07 3.18435e+07 3.12958e+07 3.07482e+07 3.02006e+07 2.96532e+07
          2.91058e+07 2.85586e+07 2.80108e+07 2.74594e+07 2.69037e+07 2.63456e+07 2.57881e+07 2.52351e+07 2.4692e+07 2.41656e+07 2.36643e+07 2.31977e+07
          2.27744e+07 2.23998e+07 2.20705e+07 2.24215e+07 2.2823e+07 2.32746e+07 2.37684e+07 2.42941e+07 2.48414e+07 2.5402e+07 2.59693e+07 2.65385e+07
          2.71062e+07 2.76698e+07 2.82286e+07 2.87842e+07 2.93399e+07 2.98958e+07 3.04517e+07 3.10078e+07 3.1564e+07 3.21202e+07 3.26766e+07 3.3233e+07
          3.37895e+07 3.4346e+07 3.49027e+07 3.54594e+07 3.60161e+07 3.65729e+07 3.71297e+07 3.76865e+07 3.82433e+07 3.88002e+07 3.93571e+07 3.9914e+07
          4.04709e+07 4.10278e+07 4.15847e+07 4.21416e+07 4.26984e+07 4.32553e+07 4.38122e+07 4.4369e+07 4.49258e+07 4.54826e+07 4.60398e+07 4.65988e+07
          4.71677e+07 4.7788e+07 4.85653e+07 4.95e+07 4.95e+07 4.85615e+07 4.78025e+07 4.71996e+07 4.66399e+07 4.60895e+07 4.55407e+07 4.49923e+07
          4.4444e+07 4.38955e+07 4.33471e+07 4.27986e+07 4.22501e+07 4.17015e+07 4.1153e+07 4.06045e+07 4.00559e+07 3.95074e+07 3.89589e+07 3.84104e+07
          3.7862e+07 3.73135e+07 3.67651e+07 3.62167e+07 3.56684e+07 3.51201e+07 3.45719e+07 3.40238e+07 3.34757e+07 3.29277e+07 3.23797e+07 3.18319e+07
          3.12842e+07 3.07365e+07 3.0189e+07 2.96415e+07 2.90942e+07 2.8547e+07 2.79991e+07 2.74477e+07 2.6892e+07 2.63339e+07 2.57763e+07 2.52233e+07
          2.46802e+07 2.41538e+07 2.36525e+07 2.31858e+07 2.27626e+07 2.23879e+07 2.20579e+07 2.24096e+07 2.28111e+07 2.32627e+07 2.37566e+07 2.42823e+07
          2.48296e+07 2.53902e+07 2.59575e+07 2.65268e+07 2.70945e+07 2.76582e+07 2.8217e+07 2.87726e+07 2.93283e+07 2.98842e+07 3.04401e+07 3.09962e+07
          3.15523e+07 3.21086e+07 3.26649e+07 3.32213e+07 3.37778e+07 3.43344e+07 3.4891e+07 3.54477e+07 3.60044e+07 3.65612e+07 3.7118e+07 3.76749e+07
          3.82317e+07 3.87886e+07 3.93455e+07 3.99023e+07 4.04592e+07 4.10161e+07 4.1573e+07 4.21299e+07 4.26868e+07 4.32437e+07 4.38005e+07 4.43573e+07
          4.49141e+07 4.5471e+07 4.60282e+07 4.65872e+07 4.7156e+07 4.777e+07 4.85447e+07 4.95e+07 4.95e+07 4.8541e+07 4.77898e+07 4.71881e+07
          4.66283e+07 4.60778e+07 4.55291e+07 4.49807e+07 4.44323e+07 4.38839e+07 4.33354e+07 4.27869e+07 4.22384e+07 4.16899e+07 4.11413e+07 4.05928e+07
          4.00443e+07 3.94958e+07 3.89473e+07 3.83988e+07 3.78503e+07 3.73019e+07 3.67535e+07 3.62051e+07 3.56568e+07 3.51085e+07 3.45603e+07 3.40121e+07
          3.3464e+07 3.2916e+07 3.23681e+07 3.18203e+07 3.12725e+07 3.07249e+07 3.01773e+07 2.96299e+07 2.90826e+07 2.85353e+07 2.79875e+07 2.7436e+07
          2.68803e+07 2.63222e+07 2.57646e+07 2.52116e+07 2.46684e+07 2.41419e+07 2.36406e+07 2.31739e+07 2.27506e+07 2.2376e+07 2.20446e+07 2.23976e+07
          2.27991e+07 2.32508e+07 2.37447e+07 2.42704e+07 2.48178e+07 2.53784e+07 2.59458e+07 2.65151e+07 2.70828e+07 2.76465e+07 2.82053e+07 2.8761e+07
          2.93167e+07 2.98725e+07 3.04285e+07 3.09845e+07 3.15407e+07 3.20969e+07 3.26533e+07 3.32097e+07 3.37662e+07 3.43228e+07 3.48794e+07 3.54361e+07
          3.59928e+07 3.65496e+07 3.71064e+07 3.76632e+07 3.82201e+07 3.87769e+07 3.93338e+07 3.98907e+07 4.04476e+07 4.10045e+07 4.15614e+07 4.21183e+07
          4.26751e+07 4.3232e+07 4.37888e+07 4.43457e+07 4.49025e+07 4.54593e+07 4.60165e+07 4.65756e+07 4.71445e+07 4.77572e+07 4.85242e+07 4.95e+07
          4.95e+07 4.85213e+07 4.77776e+07 4.71765e+07 4.66167e+07 4.60662e+07 4.55174e+07 4.4969e+07 4.44206e+07 4.38722e+07 4.33238e+07 4.27753e+07