<?xml version="1.0"?>
<VTKFile type="UnstructuredGrid" version="0.1" byte_order="LittleEndian">
  <UnstructuredGrid>
    <Piece NumberOfCells="96" NumberOfPoints="117">
      <CellData Scalars="pressure_liquid">
        <DataArray type="Float32" Name="pressure_liquid" NumberOfComponents="1" format="ascii">
          2.61161e+07 2.61163e+07 2.61168e+07 2.61174e+07 2.61181e+07 2.61188e+07 2.61196e+07 2.61204e+07 2.61212e+07 2.61218e+07 2.61224e+07 2.61227e+07
          2.60903e+07 2.60903e+07 2.60907e+07 2.60912e+07 2.60918e+07 2.60924e+07 2.60931e+07 2.60938e+07 2.60944e+07 2.6095e+07 2.60954e+07 2.60957e+07
          2.60645e+07 2.60646e+07 2.60648e+07 2.60651e+07 2.60656e+07 2.60661e+07 2.60666e+07 2.60671e+07 2.60676e+07 2.6068e+07 2.60684e+07 2.60685e+07
          2.60386e+07 2.60386e+07 2.60388e+07 2.6039e+07 2.60393e+07 2.60397e+07 2.60401e+07 2.60405e+07 2.60409e+07 2.60412e+07 2.60415e+07 2.60416e+07
          2.60127e+07 2.60127e+07 2.60127e+07 2.60128e+07 2.6013e+07 2.60133e+07 2.60136e+07 2.60139e+07 2.60142e+07 2.60145e+07 2.60146e+07 2.60147e+07
          2.59869e+07 2.59866e+07 2.59865e+07 2.59865e+07 2.59867e+07 2.59869e+07 2.59871e+07 2.59874e+07 2.59876e+07 2.59878e+07 2.59879e+07 2.5988e+07
          2.59606e+07 2.59603e+07 2.59602e+07 2.59602e+07 2.59603e+07 2.59604e+07 2.59606e+07 2.59608e+07 2.5961e+07 2.59612e+07 2.59613e+07 2.59613e+07
          2.5934e+07 2.59338e+07 2.59337e+07 2.59337e+07 2.59338e+07 2.59339e+07 2.59341e+07 2.59342e+07 2.59344e+07 2.59346e+07 2.59347e+07 2.59347e+07
        </DataArray>
        <DataArray type="Float32" Name="pressure_gas" NumberOfComponents="1" format="ascii">
          2.61211e+07 2.61213e+07 2.61218e+07 2.61224e+07 2.61231e+07 2.61238e+07 2.61246e+07 2.61254e+07 2.61262e+07 2.61268e+07 2.61274e+07 2.61277e+07
          2.61003e+07 2.61003e+07 2.61007e+07 2.61012e+07 2.61018e+07 2.61024e+07 2.61031e+07 2.61038e+07 2.61044e+07 2.6105e+07 2.61054e+07 2.61057e+07
          2.60745e+07 2.60746e+07 2.60748e+07 2.60751e+07 2.60756e+07 2.60761e+07 2.60766e+07 2.60771e+07 2.60776e+07 2.6078e+07 2.60784e+07 2.60785e+07
          2.60486e+07 2.60486e+07 2.60488e+07 2.6049e+07 2.60493e+07 2.60497e+07 2.60501e+07 2.60505e+07 2.60509e+07 2.60512e+07 2.60515e+07 2.60516e+07
          2.60227e+07 2.60227e+07 2.60227e+07 2.60228e+07 2.6023e+07 2.60233e+07 2.60236e+07 2.60239e+07 2.60242e+07 2.60245e+07 2.60246e+07 2.60247e+07
          2.59969e+07 2.59966e+07 2.59965e+07 2.59965e+07 2.59967e+07 2.59969e+07 2.59971e+07 2.59974e+07 2.59976e+07 2.59978e+07 2.59979e+07 2.5998e+07
          2.59706e+07 2.59703e+07 2.59702e+07 2.59702e+07 2.59703e+07 2.59704e+07 2.59706e+07 2.59708e+07 2.5971e+07 2.59712e+07 2.59713e+07 2.59713e+07
          2.5944e+07 2.59438e+07 2.59437e+07 2.59437e+07 2.59438e+07 2.59439e+07 2.59441e+07 2.59442e+07 2.59444e+07 2.59446e+07 2.59447e+07 2.59447e+07
        </DataArray>
        <DataArray type="Float32" Name="density_liquid" NumberOfComponents="1" format="ascii">
          1082.29 1082.33 1082.33 1082.33 1082.33 1082.33 1082.33 1082.33 1082.33 1082.33 1082.33 1082.33
          1082.29 1082.32 1082.32 1082.32 1082.32 1082.32 1082.32 1082.32 1082.32 1082.32 1082.32 1082.32
          1082.28 1082.31 1082.31 1082.31 1082.31 1082.31 1082.31 1082.31 1082.31 1082.31 1082.31 1082.31
          1082.27 1082.3 1082.3 1082.3 1082.3 1082.3 1082.3 1082.3 1082.3 1082.3 1082.3 1082.3
          1082.26 1082.29 1082.29 1082.29 1082.29 1082.29 1082.29 1082.29 1082.29 1082.29 1082.29 1082.29
          1082.25 1082.28 1082.28 1082.28 1082.28 1082.28 1082.28 1082.28 1082.28 1082.28 1082.28 1082.28
          1082.27 1082.26 1082.26 1082.26 1082.26 1082.26 1082.27 1082.27 1082.27 1082.27 1082.27 1082.27
          1082.25 1082.25 1082.25 1082.25 1082.25 1082.25 1082.25 1082.25 1082.25 1082.25 1082.25 1082.25
        </DataArray>
        <DataArray type="Float32" Name="density_gas" NumberOfComponents="1" format="ascii">
          967.656 968.215 968.217 968.22 968.223 968.227 968.23 968.234 968.237 968.24 968.242 968.244
          967.763 968.12 968.121 968.124 968.126 968.129 968.132 968.135 968.138 968.141 968.143 968.144
          967.679 968.003 968.004 968.005 968.007 968.01 968.012 968.014 968.017 968.018 968.02 968.021
          967.562 967.885 967.886 967.887 967.888 967.89 967.892 967.893 967.895 967.897 967.898 967.898
          967.442 967.767 967.767 967.768 967.769 967.77 967.771 967.773 967.774 967.775 967.776 967.776
          967.28 967.648 967.648 967.648 967.649 967.65 967.651 967.652 967.653 967.654 967.655 967.655
          967.53 967.529 967.529 967.529 967.529 967.53 967.531 967.531 967.532 967.533 967.534 967.534
          967.41 967.409 967.409 967.409 967.409 967.409 967.41 967.411 967.412 967.412 967.413 967.413
        </DataArray>
        <DataArray type="Float32" Name="saturation_liquid" NumberOfComponents="1" format="ascii">
          1 1 1 1 1 1 1 1 1 1 1 1
          1 1 1 1 1 1 1 1 1 1 1 1
          1 1 1 1 1 1 1 1 1 1 1 1
          1 1 1 1 1 1 1 1 1 1 1 1
          1 1 1 1 1 1 1 1 1 1 1 1
          1 1 1 1 1 1 1 1 1 1 1 1
          1 1 1 1 1 1 1 1 1 1 1 1
          1 1 1 1 1 1 1 1 1 1 1 1
        </DataArray>
        <DataArray type="Float32" Name="saturation_gas" NumberOfComponents="1" format="ascii">
          0 0 0 0 0 0 0 0 0 0 0 0
          0 0 0 0 0 0 0 0 0 0 0 0
          0 0 0 0 0 0 0 0 0 0 0 0
          0 0 0 0 0 0 0 0 0 0 0 0
          0 0 0 0 0 0 0 0 0 0 0 0
          0 0 0 0 0 0 0 0 0 0 0 0
          0 0 0 0 0 0 0 0 0 0 0 0
          0 0 0 0 0 0 0 0 0 0 0 0
        </DataArray>
        <DataArray type="Float32" Name="relativePerm_liquid" NumberOfComponents="1" format="ascii">
          1 1 1 1 1 1 1 1 1 1 1 1
          1 1 1 1 1 1 1 1 1 1 1 1
          1 1 1 1 1 1 1 1 1 1 1 1
          1 1 1 1 1 1 1 1 1 1 1 1
          1 1 1 1 1 1 1 1 1 1 1 1
          1 1 1 1 1 1 1 1 1 1 1 1
          1 1 1 1 1 1 1 1 1 1 1 1
          1 1 1 1 1 1 1 1 1 1 1 1
        </DataArray>
        <DataArray type="Float32" Name="relativePerm_gas" NumberOfComponents="1" format="ascii">
          0 0 0 0 0 0 0 0 0 0 0 0
          0 0 0 0 0 0 0 0 0 0 0 0
          0 0 0 0 0 0 0 0 0 0 0 0
          0 0 0 0 0 0 0 0 0 0 0 0
          0 0 0 0 0 0 0 0 0 0 0 0
          0 0 0 0 0 0 0 0 0 0 0 0
          0 0 0 0 0 0 0 0 0 0 0 0
          0 0 0 0 0 0 0 0 0 0 0 0
        </DataArray>
        <DataArray type="Float32" Name="porosity" NumberOfComponents="1" format="ascii">
          0.3 0.3 0.3 0.3 0.3 0.3 0.3 0.3 0.3 0.3 0.3 0.3
          0.3 0.3 0.3 0.3 0.3 0.3 0.3 0.3 0.3 0.3 0.3 0.3
          0.3 0.3 0.3 0.3 0.3 0.3 0.3 0.3 0.3 0.3 0.3 0.3
          0.3 0.3 0.3 0.3 0.3 0.3 0.3 0.3 0.3 0.3 0.3 0.3
          0.3 0.3 0.3 0.3 0.3 0.3 0.3 0.3 0.3 0.3 0.3 0.3
          0.3 0.3 0.3 0.3 0.3 0.3 0.3 0.3 0.3 0.3 0.3 0.3
          0.3 0.3 0.3 0.3 0.3 0.3 0.3 0.3 0.3 0.3 0.3 0.3
          0.3 0.3 0.3 0.3 0.3 0.3 0.3 0.3 0.3 0.3 0.3 0.3
        </DataArray>
        <DataArray type="Float32" Name="temperature" NumberOfComponents="1" format="ascii">
          293.294 293.15 293.15 293.15 293.15 293.15 293.15 293.15 293.15 293.15 293.15 293.15
          293.242 293.15 293.15 293.15 293.15 293.15 293.15 293.15 293.15 293.15 293.15 293.15
          293.234 293.15 293.15 293.15 293.15 293.15 293.15 293.15 293.15 293.15 293.15 293.15
          293.234 293.15 293.15 293.15 293.15 293.15 293.15 293.15 293.15 293.15 293.15 293.15
          293.234 293.15 293.15 293.15 293.15 293.15 293.15 293.15 293.15 293.15 293.15 293.15
          293.246 293.15 293.15 293.15 293.15 293.15 293.15 293.15 293.15 293.15 293.15 293.15
          293.15 293.15 293.15 293.15 293.15 293.15 293.15 293.15 293.15 293.15 293.15 293.15
          293.15 293.15 293.15 293.15 293.15 293.15 293.15 293.15 293.15 293.15 293.15 293.15
        </DataArray>
        <DataArray type="Float32" Name="moleFrac_liquid^Brine" NumberOfComponents="1" format="ascii">
          0.995 0.995 0.995 0.995 0.995 0.995 0.995 0.995 0.995 0.995 0.995 0.995
          0.995 0.995 0.995 0.995 0.995 0.995 0.995 0.995 0.995 0.995 0.995 0.995
          0.995 0.995 0.995 0.995 0.995 0.995 0.995 0.995 0.995 0.995 0.995 0.995
          0.995 0.995 0.995 0.995 0.995 0.995 0.995 0.995 0.995 0.995 0.995 0.995
          0.995 0.995 0.995 0.995 0.995 0.995 0.995 0.995 0.995 0.995 0.995 0.995
          0.995 0.995 0.995 0.995 0.995 0.995 0.995 0.995 0.995 0.995 0.995 0.995
          0.995 0.995 0.995 0.995 0.995 0.995 0.995 0.995 0.995 0.995 0.995 0.995
          0.995 0.995 0.995 0.995 0.995 0.995 0.995 0.995 0.995 0.995 0.995 0.995
        </DataArray>
        <DataArray type="Float32" Name="moleFrac_liquid^CO2" NumberOfComponents="1" format="ascii">
          0.005 0.005 0.005 0.005 0.005 0.005 0.005 0.005 0.005 0.005 0.005 0.005
          0.005 0.005 0.005 0.005 0.005 0.005 0.005 0.005 0.005 0.005 0.005 0.005
          0.005 0.005 0.005 0.005 0.005 0.005 0.005 0.005 0.005 0.005 0.005 0.005
          0.005 0.005 0.005 0.005 0.005 0.005 0.005 0.005 0.005 0.005 0.005 0.005
          0.005 0.005 0.005 0.005 0.005 0.005 0.005 0.005 0.005 0.005 0.005 0.005
          0.005 0.005 0.005 0.005 0.005 0.005 0.005 0.005 0.005 0.005 0.005 0.005
          0.005 0.005 0.005 0.005 0.005 0.005 0.005 0.005 0.005 0.005 0.005 0.005
          0.005 0.005 0.005 0.005 0.005 0.005 0.005 0.005 0.005 0.005 0.005 0.005
        </DataArray>
        <DataArray type="Float32" Name="moleFrac_gas^Brine" NumberOfComponents="1" format="ascii">
          0.00328871 0.00327508 0.00327508 0.00327509 0.0032751 0.00327511 0.00327513 0.00327514 0.00327515 0.00327516 0.00327517 0.00327518
          0.00328275 0.00327405 0.00327405 0.00327406 0.00327407 0.00327408 0.00327409 0.0032741 0.00327411 0.00327412 0.00327413 0.00327413
          0.00328152 0.00327365 0.00327365 0.00327365 0.00327366 0.00327367 0.00327368 0.00327369 0.0032737 0.0032737 0.00327371 0.00327371
          0.00328111 0.00327325 0.00327325 0.00327325 0.00327325 0.00327326 0.00327327 0.00327327 0.00327328 0.00327329 0.00327329 0.00327329
          0.00328075 0.00327284 0.00327284 0.00327284 0.00327285 0.00327285 0.00327286 0.00327286 0.00327287 0.00327287 0.00327287 0.00327288
          0.00328145 0.00327244 0.00327243 0.00327243 0.00327244 0.00327244 0.00327244 0.00327245 0.00327245 0.00327246 0.00327246 0.00327246
          0.00327204 0.00327203 0.00327202 0.00327202 0.00327203 0.00327203 0.00327203 0.00327203 0.00327204 0.00327204 0.00327204 0.00327204
          0.00327162 0.00327161 0.00327161 0.00327161 0.00327161 0.00327162 0.00327162 0.00327162 0.00327162 0.00327163 0.00327163 0.00327163
        </DataArray>
        <DataArray type="Float32" Name="moleFrac_gas^CO2" NumberOfComponents="1" format="ascii">
          0.259749 0.259553 0.259552 0.259552 0.259552 0.259551 0.25955 0.25955 0.259549 0.259549 0.259548 0.259548
          0.259647 0.259522 0.259522 0.259522 0.259521 0.259521 0.25952 0.25952 0.259519 0.259519 0.259519 0.259518
          0.259654 0.259541 0.259541 0.259541 0.25954 0.25954 0.25954 0.259539 0.259539 0.259539 0.259538 0.259538
          0.259673 0.25956 0.25956 0.25956 0.25956 0.259559 0.259559 0.259559 0.259558 0.259558 0.259558 0.259558
          0.259693 0.259579 0.259579 0.259579 0.259579 0.259578 0.259578 0.259578 0.259578 0.259578 0.259577 0.259577
          0.259727 0.259598 0.259598 0.259598 0.259598 0.259598 0.259597 0.259597 0.259597 0.259597 0.259597 0.259597
          0.259617 0.259617 0.259617 0.259617 0.259617 0.259617 0.259617 0.259616 0.259616 0.259616 0.259616 0.259616
          0.259636 0.259636 0.259636 0.259636 0.259636 0.259636 0.259636 0.259636 0.259635 0.259635 0.259635 0.259635
        </DataArray>
      </CellData>
      <Points>
        <DataArray type="Float32" Name="Coordinates" NumberOfComponents="3" format="ascii">
          30 20 0 32.5 20 0 30 22.5 0 32.5 22.5 0
          35 20 0 35 22.5 0 37.5 20 0 37.5 22.5 0
          40 20 0 40 22.5 0 42.5 20 0 42.5 22.5 0
          45 20 0 45 22.5 0 47.5 20 0 47.5 22.5 0
          50 20 0 50 22.5 0 52.5 20 0 52.5 22.5 0
          55 20 0 55 22.5 0 57.5 20 0 57.5 22.5 0
          60 20 0 60 22.5 0 30 25 0 32.5 25 0
          35 25 0 37.5 25 0 40 25 0 42.5 25 0
          45 25 0 47.5 25 0 50 25 0 52.5 25 0
          55 25 0 57.5 25 0 60 25 0 30 27.5 0
          32.5 27.5 0 35 27.5 0 37.5 27.5 0 40 27.5 0
          42.5 27.5 0 45 27.5 0 47.5 27.5 0 50 27.5 0
          52.5 27.5 0 55 27.5 0 57.5 27.5 0 60 27.5 0
          30 30 0 32.5 30 0 35 30 0 37.5 30 0
          40 30 0 42.5 30 0 45 30 0 47.5 30 0
          50 30 0 52.5 30 0 55 30 0 57.5 30 0
          60 30 0 30 32.5 0 32.5 32.5 0 35 32.5 0
          37.5 32.5 0 40 32.5 0 42.5 32.5 0 45 32.5 0
          47.5 32.5 0 50 32.5 0 52.5 32.5 0 55 32.5 0
          57.5 32.5 0 60 32.5 0 30 35 0 32.5 35 0
          35 35 0 37.5 35 0 40 35 0 42.5 35 0
          45 35 0 47.5 35 0 50 35 0 52.5 35 0
          55 35 0 57.5 35 0 60 35 0 30 37.5 0
          32.5 37.5 0 35 37.5 0 37.5 37.5 0 40 37.5 0
          42.5 37.5 0 45 37.5 0 47.5 37.5 0 50 37.5 0
          52.5 37.5 0 55 37.5 0 57.5 37.5 0 60 37.5 0
          30 40 0 32.5 40 0 35 40 0 37.5 40 0
          40 40 0 42.5 40 0 45 40 0 47.5 40 0
          50 40 0 52.5 40 0 55 40 0 57.5 40 0
          60 40 0
        </DataArray>
      </Points>
      <Cells>
        <DataArray type="Int32" Name="connectivity" NumberOfComponents="1" format="ascii">
          0 1 3 2 1 4 5 3 4 6 7 5
          6 8 9 7 8 10 11 9 10 12 13 11
          12 14 15 13 14 16 17 15 16 18 19 17
          18 20 21 19 20 22 23 21 22 24 25 23
          2 3 27 26 3 5 28 27 5 7 29 28
          7 9 30 29 9 11 31 30 11 13 32 31
          13 15 33 32 15 17 34 33 17 19 35 34
          19 21 36 35 21 23 37 36 23 25 38 37
          26 27 40 39 27 28 41 40 28 29 42 41
          29 30 43 42 30 31 44 43 31 32 45 44
          32 33 46 45 33 34 47 46 34 35 48 47
          35 36 49 48 36 37 50 49 37 38 51 50
          39 40 53 52 40 41 54 53 41 42 55 54
          42 43 56 55 43 44 57 56 44 45 58 57
          45 46 59 58 46 47 60 59 47 48 61 60
          48 49 62 61 49 50 63 62 50 51 64 63
          52 53 66 65 53 54 67 66 54 55 68 67
          55 56 69 68 56 57 70 69 57 58 71 70
          58 59 72 71 59 60 73 72 60 61 74 73
          61 62 75 74 62 63 76 75 63 64 77 76
          65 66 79 78 66 67 80 79 67 68 81 80
          68 69 82 81 69 70 83 82 70 71 84 83
          71 72 85 84 72 73 86 85 73 74 87 86
          74 75 88 87 75 76 89 88 76 77 90 89
          78 79 92 91 79 80 93 92 80 81 94 93
          81 82 95 94 82 83 96 95 83 84 97 96
          84 85 98 97 85 86 99 98 86 87 100 99
          87 88 101 100 88 89 102 101 89 90 103 102
          91 92 105 104 92 93 106 105 93 94 107 106
          94 95 108 107 95 96 109 108 96 97 110 109
          97 98 111 110 98 99 112 111 99 100 113 112
          100 101 114 113 101 102 115 114 102 103 116 115
        </DataArray>
        <DataArray type="Int32" Name="offsets" NumberOfComponents="1" format="ascii">
          4 8 12 16 20 24 28 32 36 40 44 48
          52 56 60 64 68 72 76 80 84 88 92 96
          100 104 108 112 116 120 124 128 132 136 140 144
          148 152 156 160 164 168 172 176 180 184 188 192
          196 200 204 208 212 216 220 224 228 232 236 240
          244 248 252 256 260 264 268 272 276 280 284 288
          292 296 300 304 308 312 316 320 324 328 332 336
          340 344 348 352 356 360 364 368 372 376 380 384
        </DataArray>
        <DataArray type="UInt8" Name="types" NumberOfComponents="1" format="ascii">
          9 9 9 9 9 9 9 9 9 9 9 9
          9 9 9 9 9 9 9 9 9 9 9 9
          9 9 9 9 9 9 9 9 9 9 9 9
          9 9 9 9 9 9 9 9 9 9 9 9
          9 9 9 9 9 9 9 9 9 9 9 9
          9 9 9 9 9 9 9 9 9 9 9 9
          9 9 9 9 9 9 9 9 9 9 9 9
          9 9 9 9 9 9 9 9 9 9 9 9
        </DataArray>
      </Cells>
    </Piece>
  </UnstructuredGrid>
</VTKFile>
