<?xml version="1.0"?>
<VTKFile type="UnstructuredGrid" version="0.1" byte_order="LittleEndian">
  <UnstructuredGrid>
    <Piece NumberOfCells="384" NumberOfPoints="425">
      <PointData Scalars="pressure_wetting" Vectors="intrinsicPerm[0]">
        <DataArray type="Float32" Name="pressure_wetting" NumberOfComponents="1" format="ascii">
          124052 123825 122513 122300 123594 122080 123358 121852 123114 121613 122860 121358
          122588 121077 122284 120751 121876 120349 121517 120104 121430 120047 121309 119962
          121184 119861 121058 119753 120931 119640 120804 119524 120677 119406 120550 119286
          120422 119165 120294 119043 120166 118920 120038 118797 119909 118673 119781 118549
          119652 118425 120980 120780 120574 120358 120128 119880 119606 119295 118937 118733
          118693 118628 118546 118452 118352 118246 118136 118023 117908 117792 117674 117556
          117437 117317 117197 119452 119268 119077 118875 118661 118428 118172 117888 117571
          117395 117363 117310 117241 117159 117068 116971 116868 116762 116654 116543 116430
          116316 116201 116086 115970 117930 117763 117589 117406 117211 116999 116768 116514
          116236 116082 116055 116009 115948 115875 115791 115701 115605 115505 115401 115295
          115187 115077 114966 114855 114743 116413 116266 116111 115949 115776 115590 115388
          115166 114924 114790 114766 114724 114668 114599 114522 114436 114345 114250 114151
          114049 113945 113839 113732 113624 113516 114902 114774 114641 114502 114355 114197
          114027 113840 113633 113518 113494 113454 113399 113334 113259 113178 113090 112999
          112903 112805 112705 112602 112499 112394 112289 113395 113288 113178 113063 112943
          112817 112682 112533 112364 112265 112240 112197 112141 112076 112004 111924 111840
          111751 111659 111564 111466 111367 111266 111164 111062 111891 111805 111718 111629
          111539 111446 111349 111246 111124 111035 111002 110952 110893 110827 110754 110676
          110594 110507 110417 110325 110230 110133 110035 109935 109835 110523 110448 110373
          110298 110223 110147 110071 109995 109921 109840 109776 109716 109652 109584 109511
          109433 109351 109267 109179 109088 108995 108900 108804 108707 108608 109292 109217
          109143 109068 108994 108919 108844 108769 108694 108621 108552 108484 108416 108345
          108271 108193 108113 108029 107942 107853 107762 107669 107575 107479 107382 108061
          107986 107912 107839 107765 107691 107617 107543 107469 107396 107325 107254 107183
          107110 107035 106957 106877 106794 106709 106621 106532 106440 106347 106252 106155
          106830 106755 106682 106609 106536 106463 106389 106316 106243 106170 106097 106025
          105952 105878 105802 105724 105643 105561 105477 105391 105303 105213 105121 105026
          104929 105600 105524 105452 105380 105308 105235 105162 105089 105016 104943 104870
          104796 104722 104647 104570 104492 104412 104330 104247 104162 104076 103988 103898
          103803 103704 104371 104294 104222 104151 104079 104007 103935 103862 103789 103716
          103642 103568 103493 103418 103341 103262 103182 103101 103019 102935 102850 102765
          102679 102587 102481 103143 103065 102993 102923 102852 102780 102708 102635 102562
          102489 102415 102341 102266 102190 102113 102034 101954 101873 101791 101708 101625
          101543 101464 101389 101269 101916 101837 101766 101696 101625 101554 101481 101409
          101336 101262 101189 101114 101039 100963 100886 100807 100727 100647 100565 100482
          100400 100319 100243 100184 100258
        </DataArray>
        <DataArray type="Float32" Name="pressure_nonwetting" NumberOfComponents="1" format="ascii">
          124052 123825 122513 122300 123594 122080 123358 121852 123114 121613 122860 121358
          122588 121077 122284 120751 121876 120349 121517 120104 121430 120047 121309 119962
          121184 119861 121058 119753 120931 119640 120804 119524 120677 119406 120550 119286
          120422 119165 120294 119043 120166 118920 120038 118797 119909 118673 119781 118549
          119652 118425 120980 120780 120574 120358 120128 119880 119606 119295 118937 118733
          118693 118628 118546 118452 118352 118246 118136 118023 117908 117792 117674 117556
          117437 117317 117197 119452 119268 119077 118875 118661 118428 118172 117888 117571
          117395 117363 117310 117241 117159 117068 116971 116868 116762 116654 116543 116430
          116316 116201 116086 115970 117930 117763 117589 117406 117211 116999 116768 116514
          116236 116082 116055 116009 115948 115875 115791 115701 115605 115505 115401 115295
          115187 115077 114966 114855 114743 116413 116266 116111 115949 115776 115590 115388
          115166 114924 114790 114766 114724 114668 114599 114522 114436 114345 114250 114151
          114049 113945 113839 113732 113624 113516 114902 114774 114641 114502 114355 114197
          114027 113840 113633 113518 113494 113454 113399 113334 113259 113178 113090 112999
          112903 112805 112705 112602 112499 112394 112289 113395 113288 113178 113063 112943
          112817 112682 112533 112364 112265 112240 112197 112141 112076 112004 111924 111840
          111751 111659 111564 111466 111367 111266 111164 111062 111891 111805 111718 111629
          111539 111446 111349 111246 111124 111035 111002 110952 110893 110827 110754 110676
          110594 110507 110417 110325 110230 110133 110035 109935 109835 110523 110448 110373
          110298 110223 110147 110071 109995 109921 109840 109776 109716 109652 109584 109511
          109433 109351 109267 109179 109088 108995 108900 108804 108707 108608 109294 109217
          109143 109068 108994 108919 108844 108769 108694 108621 108552 108484 108416 108345
          108271 108193 108113 108029 107942 107853 107762 107669 107575 107479 107382 108087
          107987 107912 107839 107765 107691 107617 107543 107469 107396 107325 107254 107183
          107110 107035 106957 106877 106794 106709 106621 106532 106440 106347 106252 106155
          106908 106765 106682 106609 106536 106463 106389 106316 106243 106170 106097 106025
          105952 105878 105802 105724 105643 105561 105477 105391 105303 105213 105121 105026
          104929 105710 105562 105452 105380 105308 105235 105162 105089 105016 104943 104870
          104796 104722 104647 104570 104492 104412 104330 104247 104162 104076 103988 103898
          103803 103704 104495 104365 104226 104151 104079 104007 103935 103862 103789 103716
          103642 103568 103493 103418 103341 103262 103182 103101 103019 102935 102850 102765
          102679 102587 102481 103278 103156 103004 102923 102852 102780 102708 102635 102562
          102489 102415 102341 102266 102190 102113 102034 101954 101873 101791 101708 101625
          101543 101464 101389 101269 102060 101932 101778 101696 101625 101554 101481 101409
          101336 101262 101189 101114 101039 100963 100886 100807 100727 100647 100565 100482
          100400 100319 100243 100184 100258
        </DataArray>
        <DataArray type="Float32" Name="density_wetting" NumberOfComponents="1" format="ascii">
          1000 1000 1000 1000 1000 1000 1000 1000 1000 1000 1000 1000
          1000 1000 1000 1000 1000 1000 1000 1000 1000 1000 1000 1000
          1000 1000 1000 1000 1000 1000 1000 1000 1000 1000 1000 1000
          1000 1000 1000 1000 1000 1000 1000 1000 1000 1000 1000 1000
          1000 1000 1000 1000 1000 1000 1000 1000 1000 1000 1000 1000
          1000 1000 1000 1000 1000 1000 1000 1000 1000 1000 1000 1000
          1000 1000 1000 1000 1000 1000 1000 1000 1000 1000 1000 1000
          1000 1000 1000 1000 1000 1000 1000 1000 1000 1000 1000 1000
          1000 1000 1000 1000 1000 1000 1000 1000 1000 1000 1000 1000
          1000 1000 1000 1000 1000 1000 1000 1000 1000 1000 1000 1000
          1000 1000 1000 1000 1000 1000 1000 1000 1000 1000 1000 1000
          1000 1000 1000 1000 1000 1000 1000 1000 1000 1000 1000 1000
          1000 1000 1000 1000 1000 1000 1000 1000 1000 1000 1000 1000
          1000 1000 1000 1000 1000 1000 1000 1000 1000 1000 1000 1000
          1000 1000 1000 1000 1000 1000 1000 1000 1000 1000 1000 1000
          1000 1000 1000 1000 1000 1000 1000 1000 1000 1000 1000 1000
          1000 1000 1000 1000 1000 1000 1000 1000 1000 1000 1000 1000
          1000 1000 1000 1000 1000 1000 1000 1000 1000 1000 1000 1000
          1000 1000 1000 1000 1000 1000 1000 1000 1000 1000 1000 1000
          1000 1000 1000 1000 1000 1000 1000 1000 1000 1000 1000 1000
          1000 1000 1000 1000 1000 1000 1000 1000 1000 1000 1000 1000
          1000 1000 1000 1000 1000 1000 1000 1000 1000 1000 1000 1000
          1000 1000 1000 1000 1000 1000 1000 1000 1000 1000 1000 1000
          1000 1000 1000 1000 1000 1000 1000 1000 1000 1000 1000 1000
          1000 1000 1000 1000 1000 1000 1000 1000 1000 1000 1000 1000
          1000 1000 1000 1000 1000 1000 1000 1000 1000 1000 1000 1000
          1000 1000 1000 1000 1000 1000 1000 1000 1000 1000 1000 1000
          1000 1000 1000 1000 1000 1000 1000 1000 1000 1000 1000 1000
          1000 1000 1000 1000 1000 1000 1000 1000 1000 1000 1000 1000
          1000 1000 1000 1000 1000 1000 1000 1000 1000 1000 1000 1000
          1000 1000 1000 1000 1000 1000 1000 1000 1000 1000 1000 1000
          1000 1000 1000 1000 1000 1000 1000 1000 1000 1000 1000 1000
          1000 1000 1000 1000 1000 1000 1000 1000 1000 1000 1000 1000
          1000 1000 1000 1000 1000 1000 1000 1000 1000 1000 1000 1000
          1000 1000 1000 1000 1000 1000 1000 1000 1000 1000 1000 1000
          1000 1000 1000 1000 1000
        </DataArray>
        <DataArray type="Float32" Name="density_nonwetting" NumberOfComponents="1" format="ascii">
          1460 1460 1460 1460 1460 1460 1460 1460 1460 1460 1460 1460
          1460 1460 1460 1460 1460 1460 1460 1460 1460 1460 1460 1460
          1460 1460 1460 1460 1460 1460 1460 1460 1460 1460 1460 1460
          1460 1460 1460 1460 1460 1460 1460 1460 1460 1460 1460 1460
          1460 1460 1460 1460 1460 1460 1460 1460 1460 1460 1460 1460
          1460 1460 1460 1460 1460 1460 1460 1460 1460 1460 1460 1460
          1460 1460 1460 1460 1460 1460 1460 1460 1460 1460 1460 1460
          1460 1460 1460 1460 1460 1460 1460 1460 1460 1460 1460 1460
          1460 1460 1460 1460 1460 1460 1460 1460 1460 1460 1460 1460
          1460 1460 1460 1460 1460 1460 1460 1460 1460 1460 1460 1460
          1460 1460 1460 1460 1460 1460 1460 1460 1460 1460 1460 1460
          1460 1460 1460 1460 1460 1460 1460 1460 1460 1460 1460 1460
          1460 1460 1460 1460 1460 1460 1460 1460 1460 1460 1460 1460
          1460 1460 1460 1460 1460 1460 1460 1460 1460 1460 1460 1460
          1460 1460 1460 1460 1460 1460 1460 1460 1460 1460 1460 1460
          1460 1460 1460 1460 1460 1460 1460 1460 1460 1460 1460 1460
          1460 1460 1460 1460 1460 1460 1460 1460 1460 1460 1460 1460
          1460 1460 1460 1460 1460 1460 1460 1460 1460 1460 1460 1460
          1460 1460 1460 1460 1460 1460 1460 1460 1460 1460 1460 1460
          1460 1460 1460 1460 1460 1460 1460 1460 1460 1460 1460 1460
          1460 1460 1460 1460 1460 1460 1460 1460 1460 1460 1460 1460
          1460 1460 1460 1460 1460 1460 1460 1460 1460 1460 1460 1460
          1460 1460 1460 1460 1460 1460 1460 1460 1460 1460 1460 1460
          1460 1460 1460 1460 1460 1460 1460 1460 1460 1460 1460 1460
          1460 1460 1460 1460 1460 1460 1460 1460 1460 1460 1460 1460
          1460 1460 1460 1460 1460 1460 1460 1460 1460 1460 1460 1460
          1460 1460 1460 1460 1460 1460 1460 1460 1460 1460 1460 1460
          1460 1460 1460 1460 1460 1460 1460 1460 1460 1460 1460 1460
          1460 1460 1460 1460 1460 1460 1460 1460 1460 1460 1460 1460
          1460 1460 1460 1460 1460 1460 1460 1460 1460 1460 1460 1460
          1460 1460 1460 1460 1460 1460 1460 1460 1460 1460 1460 1460
          1460 1460 1460 1460 1460 1460 1460 1460 1460 1460 1460 1460
          1460 1460 1460 1460 1460 1460 1460 1460 1460 1460 1460 1460
          1460 1460 1460 1460 1460 1460 1460 1460 1460 1460 1460 1460
          1460 1460 1460 1460 1460 1460 1460 1460 1460 1460 1460 1460
          1460 1460 1460 1460 1460
        </DataArray>
        <DataArray type="Float32" Name="saturation_wetting" NumberOfComponents="1" format="ascii">
          1 1 1 1 1 1 1 1 1 1 1 1
          1 1 1 1 1 1 1 1 1 1 1 1
          1 1 1 1 1 1 1 1 1 1 1 1
          1 1 1 1 1 1 1 1 1 1 1 1
          1 1 1 1 1 1 1 1 1 1 1 1
          1 1 1 1 1 1 1 1 1 1 1 1
          1 1 1 1 1 1 1 1 1 1 1 1
          1 1 1 1 1 1 1 1 1 1 1 1
          1 1 1 1 1 1 1 1 1 1 1 1
          1 1 1 1 1 1 1 1 1 1 1 1
          1 1 1 1 1 1 1 1 1 1 1 1
          1 1 1 1 1 1 1 1 1 1 1 1
          1 1 1 1 1 1 1 1 1 1 1 1
          1 1 1 1 1 1 1 1 1 1 1 1
          1 1 1 1 1 1 1 1 1 1 1 1
          1 1 1 1 1 1 1 1 1 1 1 1
          1 1 1 1 1 1 1 1 1 1 1 1
          1 1 1 1 1 1 1 1 1 1 1 1
          1 1 1 1 1 1 1 1 1 0.999999 1 1
          1 1 1 1 1 1 1 1 1 1 1 1
          1 1 1 1 1 1 1 1 1 1 0.999903 1
          1 1 1 1 1 1 1 1 1 1 1 1
          1 1 1 1 1 1 1 1 1 1 1 0.998734
          0.999972 1 1 1 1 1 1 1 1 1 1 1
          1 1 1 1 1 1 1 1 1 1 1 1
          0.995195 0.999543 0.999998 1 1 1 1 1 1 1 1 1
          1 1 1 1 1 1 1 1 1 1 1 1
          1 0.989324 0.998071 0.999959 1 1 1 1 1 1 1 1
          1 1 1 1 1 1 1 1 1 1 1 1
          1 1 0.981601 0.995847 0.999786 1 1 1 1 1 1 1
          1 1 1 1 1 1 1 1 1 1 1 1
          1 1 1 0.972841 0.993688 0.999502 0.999998 1 1 1 1 1
          1 1 1 1 1 1 1 1 1 1 1 1
          1 1 1 1 0.963457 0.993162 0.999448 0.999997 1 1 1 1
          1 1 1 1 1 1 1 1 1 1 1 1
          1 1 1 1 1
        </DataArray>
        <DataArray type="Float32" Name="saturation_nonwetting" NumberOfComponents="1" format="ascii">
          0 0 0 0 0 0 0 0 0 0 0 0
          0 0 0 0 0 0 0 0 0 0 0 0
          0 0 0 0 0 0 0 0 0 0 0 0
          0 0 0 0 0 0 0 0 0 0 0 0
          0 0 0 0 0 0 0 0 0 0 0 0
          0 0 0 0 0 0 0 0 0 0 0 0
          0 0 0 0 0 0 0 0 0 0 0 0
          0 0 0 0 0 0 0 0 0 0 0 0
          0 0 0 0 0 0 0 0 0 0 0 0
          0 0 0 0 0 0 0 0 0 0 0 0
          0 0 0 0 0 0 0 0 0 0 0 0
          0 0 0 0 0 0 0 0 0 0 0 0
          0 0 0 0 0 0 0 0 0 0 0 0
          0 0 0 0 0 0 0 0 0 0 0 0
          0 0 0 0 0 0 0 0 0 0 0 0
          0 0 0 0 0 0 0 0 0 0 0 0
          0 0 0 0 0 0 0 0 1.41798e-12 0 0 0
          0 0 0 0 0 0 0 0 0 0 0 0
          0 0 0 0 0 0 0 0 0 6.71839e-07 9.5266e-12 0
          0 0 0 0 0 0 0 0 0 0 0 0
          0 0 0 0 0 0 0 0 0 0 9.71863e-05 1.52786e-07
          3.95683e-13 0 0 0 0 0 0 0 0 0 0 0
          0 0 0 0 0 0 0 0 0 0 0 0.00126585
          2.83273e-05 8.64332e-09 1.55431e-15 0 0 0 0 0 0 0 0 0
          0 0 0 0 0 0 0 0 0 0 0 0
          0.00480471 0.000457082 2.00121e-06 5.0876e-11 0 0 0 0 0 0 0 0
          0 0 0 0 0 0 0 0 0 0 0 0
          0 0.0106763 0.00192911 4.06127e-05 1.591e-08 4.996e-15 0 0 0 0 0 0
          0 0 0 0 0 0 0 0 0 0 0 0
          0 0 0.0183991 0.00415257 0.000213546 3.91888e-07 2.21956e-12 0 0 0 0 0
          0 0 0 0 0 0 0 0 0 0 0 0
          0 0 0 0.0271594 0.00631231 0.000497714 2.08255e-06 5.33367e-11 0 0 0 0
          0 0 0 0 0 0 0 0 0 0 0 0
          0 0 0 0 0.0365426 0.00683837 0.000551566 2.56915e-06 7.94053e-11 0 0 0
          0 0 0 0 0 0 0 0 0 0 0 0
          0 0 0 0 0
        </DataArray>
        <DataArray type="Float32" Name="relativePerm_wetting" NumberOfComponents="1" format="ascii">
          1 1 1 1 1 1 1 1 1 1 1 1
          1 1 1 1 1 1 1 1 1 1 1 1
          1 1 1 1 1 1 1 1 1 1 1 1
          1 1 1 1 1 1 1 1 1 1 1 1
          1 1 1 1 1 1 1 1 1 1 1 1
          1 1 1 1 1 1 1 1 1 1 1 1
          1 1 1 1 1 1 1 1 1 1 1 1
          1 1 1 1 1 1 1 1 1 1 1 1
          1 1 1 1 1 1 1 1 1 1 1 1
          1 1 1 1 1 1 1 1 1 1 1 1
          1 1 1 1 1 1 1 1 1 1 1 1
          1 1 1 1 1 1 1 1 1 1 1 1
          1 1 1 1 1 1 1 1 1 1 1 1
          1 1 1 1 1 1 1 1 1 1 1 1
          1 1 1 1 1 1 1 1 1 1 1 1
          1 1 1 1 1 1 1 1 1 1 1 1
          1 1 1 1 1 1 1 1 1 1 1 1
          1 1 1 1 1 1 1 1 1 1 1 1
          1 1 1 1 1 1 1 1 1 0.999965 1 1
          1 1 1 1 1 1 1 1 1 1 1 1
          1 1 1 1 1 1 1 1 1 1 0.998205 0.999989
          1 1 1 1 1 1 1 1 1 1 1 1
          1 1 1 1 1 1 1 1 1 1 1 0.986228
          0.999324 0.999999 1 1 1 1 1 1 1 1 1 1
          1 1 1 1 1 1 1 1 1 1 1 1
          0.960327 0.993868 0.999917 1 1 1 1 1 1 1 1 1
          1 1 1 1 1 1 1 1 1 1 1 1
          1 0.925567 0.980755 0.999101 0.999998 1 1 1 1 1 1 1
          1 1 1 1 1 1 1 1 1 1 1 1
          1 1 0.886202 0.964653 0.996649 0.999977 1 1 1 1 1 1
          1 1 1 1 1 1 1 1 1 1 1 1
          1 1 1 0.846402 0.950779 0.993439 0.999914 1 1 1 1 1
          1 1 1 1 1 1 1 1 1 1 1 1
          1 1 1 1 0.807572 0.94757 0.992881 0.999899 1 1 1 1
          1 1 1 1 1 1 1 1 1 1 1 1
          1 1 1 1 1
        </DataArray>
        <DataArray type="Float32" Name="relativePerm_nonwetting" NumberOfComponents="1" format="ascii">
          0 0 0 0 0 0 0 0 0 0 0 0
          0 0 0 0 0 0 0 0 0 0 0 0
          0 0 0 0 0 0 0 0 0 0 0 0
          0 0 0 0 0 0 0 0 0 0 0 0
          0 0 0 0 0 0 0 0 0 0 0 0
          0 0 0 0 0 0 0 0 0 0 0 0
          0 0 0 0 0 0 0 0 0 0 0 0
          0 0 0 0 0 0 0 0 0 0 0 0
          0 0 0 0 0 0 0 0 0 0 0 0
          0 0 0 0 0 0 0 0 0 0 0 0
          0 0 0 0 0 0 0 0 0 0 0 0
          0 0 0 0 0 0 0 0 0 0 0 0
          0 0 0 0 0 0 0 0 0 0 0 0
          0 0 0 0 0 0 0 0 0 0 0 0
          0 0 0 0 0 0 0 0 0 0 0 0
          0 0 0 0 0 0 0 0 0 0 0 0
          0 0 0 0 0 0 0 0 7.72573e-25 0 0 0
          0 0 0 0 0 0 0 0 0 0 0 0
          0 0 0 0 0 0 0 0 0 2.68985e-12 1.51385e-21 0
          0 0 0 0 0 0 0 0 0 0 0 0
          0 0 0 0 0 0 0 0 0 0 3.5581e-08 1.59464e-13
          3.50229e-24 0 0 0 0 0 0 0 0 0 0 0
          0 0 0 0 0 0 0 0 0 0 0 4.76297e-06
          3.38678e-09 6.65071e-16 9.21798e-29 0 0 0 0 0 0 0 0 0
          0 0 0 0 0 0 0 0 0 0 0 0
          6.06308e-05 6.82289e-07 2.15814e-11 3.69956e-20 0 0 0 0 0 0 0 0
          0 0 0 0 0 0 0 0 0 0 0 0
          0 0.000277753 1.06387e-05 6.73402e-09 2.13019e-15 8.31667e-28 0 0 0 0 0 0
          0 0 0 0 0 0 0 0 0 0 0 0
          0 0 0.000783169 4.59089e-05 1.59757e-07 9.61844e-13 9.39885e-23 0 0 0 0 0
          0 0 0 0 0 0 0 0 0 0 0 0
          0 0 0 0.00164303 0.000102014 8.0265e-07 2.32857e-11 4.04842e-20 0 0 0 0
          0 0 0 0 0 0 0 0 0 0 0 0
          0 0 0 0 0.00288794 0.000118832 9.76431e-07 3.4759e-11 8.64964e-20 0 0 0
          0 0 0 0 0 0 0 0 0 0 0 0
          0 0 0 0 0
        </DataArray>
        <DataArray type="Float32" Name="porosity" NumberOfComponents="1" format="ascii">
          0.4 0.4 0.4 0.4 0.4 0.4 0.4 0.4 0.4 0.4 0.4 0.4
          0.4 0.4 0.4 0.4 0.4 0.4 0.4 0.4 0.4 0.4 0.4 0.4
          0.4 0.4 0.4 0.4 0.4 0.4 0.4 0.4 0.4 0.4 0.4 0.4
          0.4 0.4 0.4 0.4 0.4 0.4 0.4 0.4 0.4 0.4 0.4 0.4
          0.4 0.4 0.4 0.4 0.4 0.4 0.4 0.4 0.4 0.4 0.4 0.4
          0.4 0.4 0.4 0.4 0.4 0.4 0.4 0.4 0.4 0.4 0.4 0.4
          0.4 0.4 0.4 0.4 0.4 0.4 0.4 0.4 0.4 0.4 0.4 0.4
          0.4 0.4 0.4 0.4 0.4 0.4 0.4 0.4 0.4 0.4 0.4 0.4
          0.4 0.4 0.4 0.4 0.4 0.4 0.4 0.4 0.4 0.4 0.4 0.4
          0.4 0.4 0.4 0.4 0.4 0.4 0.4 0.4 0.4 0.4 0.4 0.4
          0.4 0.4 0.4 0.4 0.4 0.4 0.4 0.4 0.4 0.4 0.4 0.4
          0.4 0.4 0.4 0.4 0.4 0.4 0.4 0.4 0.4 0.4 0.4 0.4
          0.4 0.4 0.4 0.4 0.4 0.4 0.4 0.4 0.4 0.4 0.4 0.4
          0.4 0.4 0.4 0.4 0.4 0.4 0.4 0.4 0.4 0.4 0.4 0.4
          0.4 0.4 0.4 0.4 0.4 0.4 0.4 0.4 0.4 0.4 0.4 0.4
          0.4 0.4 0.4 0.4 0.4 0.4 0.4 0.4 0.4 0.4 0.4 0.4
          0.4 0.4 0.4 0.4 0.4 0.4 0.4 0.4 0.4 0.4 0.4 0.4
          0.4 0.4 0.4 0.4 0.4 0.4 0.4 0.4 0.4 0.4 0.4 0.4
          0.4 0.4 0.4 0.4 0.4 0.4 0.4 0.4 0.4 0.4 0.4 0.4
          0.4 0.4 0.4 0.4 0.4 0.4 0.4 0.4 0.4 0.4 0.4 0.4
          0.4 0.4 0.4 0.4 0.4 0.4 0.4 0.4 0.4 0.4 0.4 0.4
          0.4 0.4 0.4 0.4 0.4 0.4 0.4 0.4 0.4 0.4 0.4 0.4
          0.4 0.4 0.4 0.4 0.4 0.4 0.4 0.4 0.4 0.4 0.4 0.4
          0.4 0.4 0.4 0.4 0.4 0.4 0.4 0.4 0.4 0.4 0.4 0.4
          0.4 0.4 0.4 0.4 0.4 0.4 0.4 0.4 0.4 0.4 0.4 0.4
          0.4 0.4 0.4 0.4 0.4 0.4 0.4 0.4 0.4 0.4 0.4 0.4
          0.4 0.4 0.4 0.4 0.4 0.4 0.4 0.4 0.4 0.4 0.4 0.4
          0.4 0.4 0.4 0.4 0.4 0.4 0.4 0.4 0.4 0.4 0.4 0.4
          0.4 0.4 0.4 0.4 0.4 0.4 0.4 0.4 0.4 0.4 0.4 0.4
          0.4 0.4 0.4 0.4 0.4 0.4 0.4 0.4 0.4 0.4 0.4 0.4
          0.4 0.4 0.4 0.4 0.4 0.4 0.4 0.4 0.4 0.4 0.4 0.4
          0.4 0.4 0.4 0.4 0.4 0.4 0.4 0.4 0.4 0.4 0.4 0.4
          0.4 0.4 0.4 0.4 0.4 0.4 0.4 0.4 0.4 0.4 0.4 0.4
          0.4 0.4 0.4 0.4 0.4 0.4 0.4 0.4 0.4 0.4 0.4 0.4
          0.4 0.4 0.4 0.4 0.4 0.4 0.4 0.4 0.4 0.4 0.4 0.4
          0.4 0.4 0.4 0.4 0.4
        </DataArray>
        <DataArray type="Float32" Name="intrinsicPerm[0]" NumberOfComponents="3" format="ascii">
          9.05e-12 0 0 9.05e-12 0 0 9.05e-12 0 0 9.05e-12 0 0
          9.05e-12 0 0 9.05e-12 0 0 9.05e-12 0 0 9.05e-12 0 0
          9.05e-12 0 0 9.05e-12 0 0 9.05e-12 0 0 9.05e-12 0 0
          9.05e-12 0 0 9.05e-12 0 0 9.05e-12 0 0 9.05e-12 0 0
          9.05e-12 0 0 9.05e-12 0 0 4.6e-10 0 0 4.6e-10 0 0
          4.6e-10 0 0 4.6e-10 0 0 4.6e-10 0 0 4.6e-10 0 0
          4.6e-10 0 0 4.6e-10 0 0 4.6e-10 0 0 4.6e-10 0 0
          4.6e-10 0 0 4.6e-10 0 0 4.6e-10 0 0 4.6e-10 0 0
          4.6e-10 0 0 4.6e-10 0 0 4.6e-10 0 0 4.6e-10 0 0
          4.6e-10 0 0 4.6e-10 0 0 4.6e-10 0 0 4.6e-10 0 0
          4.6e-10 0 0 4.6e-10 0 0 4.6e-10 0 0 4.6e-10 0 0
          4.6e-10 0 0 4.6e-10 0 0 4.6e-10 0 0 4.6e-10 0 0
          4.6e-10 0 0 4.6e-10 0 0 9.05e-12 0 0 9.05e-12 0 0
          9.05e-12 0 0 9.05e-12 0 0 9.05e-12 0 0 9.05e-12 0 0
          9.05e-12 0 0 9.05e-12 0 0 9.05e-12 0 0 4.6e-10 0 0
          4.6e-10 0 0 4.6e-10 0 0 4.6e-10 0 0 4.6e-10 0 0
          4.6e-10 0 0 4.6e-10 0 0 4.6e-10 0 0 4.6e-10 0 0
          4.6e-10 0 0 4.6e-10 0 0 4.6e-10 0 0 4.6e-10 0 0
          4.6e-10 0 0 4.6e-10 0 0 4.6e-10 0 0 9.05e-12 0 0
          9.05e-12 0 0 9.05e-12 0 0 9.05e-12 0 0 9.05e-12 0 0
          9.05e-12 0 0 9.05e-12 0 0 9.05e-12 0 0 9.05e-12 0 0
          4.6e-10 0 0 4.6e-10 0 0 4.6e-10 0 0 4.6e-10 0 0
          4.6e-10 0 0 4.6e-10 0 0 4.6e-10 0 0 4.6e-10 0 0
          4.6e-10 0 0 4.6e-10 0 0 4.6e-10 0 0 4.6e-10 0 0
          4.6e-10 0 0 4.6e-10 0 0 4.6e-10 0 0 4.6e-10 0 0
          9.05e-12 0 0 9.05e-12 0 0 9.05e-12 0 0 9.05e-12 0 0
          9.05e-12 0 0 9.05e-12 0 0 9.05e-12 0 0 9.05e-12 0 0
          9.05e-12 0 0 4.6e-10 0 0 4.6e-10 0 0 4.6e-10 0 0
          4.6e-10 0 0 4.6e-10 0 0 4.6e-10 0 0 4.6e-10 0 0
          4.6e-10 0 0 4.6e-10 0 0 4.6e-10 0 0 4.6e-10 0 0
          4.6e-10 0 0 4.6e-10 0 0 4.6e-10 0 0 4.6e-10 0 0
          4.6e-10 0 0 9.05e-12 0 0 9.05e-12 0 0 9.05e-12 0 0
          9.05e-12 0 0 9.05e-12 0 0 9.05e-12 0 0 9.05e-12 0 0
          9.05e-12 0 0 9.05e-12 0 0 4.6e-10 0 0 4.6e-10 0 0
          4.6e-10 0 0 4.6e-10 0 0 4.6e-10 0 0 4.6e-10 0 0
          4.6e-10 0 0 4.6e-10 0 0 4.6e-10 0 0 4.6e-10 0 0
          4.6e-10 0 0 4.6e-10 0 0 4.6e-10 0 0 4.6e-10 0 0
          4.6e-10 0 0 4.6e-10 0 0 9.05e-12 0 0 9.05e-12 0 0
          9.05e-12 0 0 9.05e-12 0 0 9.05e-12 0 0 9.05e-12 0 0
          9.05e-12 0 0 9.05e-12 0 0 9.05e-12 0 0 4.6e-10 0 0
          4.6e-10 0 0 4.6e-10 0 0 4.6e-10 0 0 4.6e-10 0 0
          4.6e-10 0 0 4.6e-10 0 0 4.6e-10 0 0 4.6e-10 0 0
          4.6e-10 0 0 4.6e-10 0 0 4.6e-10 0 0 4.6e-10 0 0
          4.6e-10 0 0 4.6e-10 0 0 4.6e-10 0 0 9.05e-12 0 0
          9.05e-12 0 0 9.05e-12 0 0 9.05e-12 0 0 9.05e-12 0 0
          9.05e-12 0 0 9.05e-12 0 0 9.05e-12 0 0 9.05e-12 0 0
          4.6e-10 0 0 4.6e-10 0 0 4.6e-10 0 0 4.6e-10 0 0
          4.6e-10 0 0 4.6e-10 0 0 4.6e-10 0 0 4.6e-10 0 0
          4.6e-10 0 0 4.6e-10 0 0 4.6e-10 0 0 4.6e-10 0 0
          4.6e-10 0 0 4.6e-10 0 0 4.6e-10 0 0 4.6e-10 0 0
          9.05e-12 0 0 9.05e-12 0 0 9.05e-12 0 0 9.05e-12 0 0
          9.05e-12 0 0 9.05e-12 0 0 9.05e-12 0 0 9.05e-12 0 0
          9.05e-12 0 0 4.6e-10 0 0 4.6e-10 0 0 4.6e-10 0 0
          4.6e-10 0 0 4.6e-10 0 0 4.6e-10 0 0 4.6e-10 0 0
          4.6e-10 0 0 4.6e-10 0 0 4.6e-10 0 0 4.6e-10 0 0
          4.6e-10 0 0 4.6e-10 0 0 4.6e-10 0 0 4.6e-10 0 0
          4.6e-10 0 0 4.6e-10 0 0 4.6e-10 0 0 4.6e-10 0 0
          4.6e-10 0 0 4.6e-10 0 0 4.6e-10 0 0 4.6e-10 0 0
          4.6e-10 0 0 4.6e-10 0 0 4.6e-10 0 0 4.6e-10 0 0
          4.6e-10 0 0 4.6e-10 0 0 4.6e-10 0 0 4.6e-10 0 0
          4.6e-10 0 0 4.6e-10 0 0 4.6e-10 0 0 4.6e-10 0 0
          4.6e-10 0 0 4.6e-10 0 0 4.6e-10 0 0 4.6e-10 0 0
          4.6e-10 0 0 4.6e-10 0 0 4.6e-10 0 0 4.6e-10 0 0
          4.6e-10 0 0 4.6e-10 0 0 4.6e-10 0 0 4.6e-10 0 0
          4.6e-10 0 0 4.6e-10 0 0 4.6e-10 0 0 4.6e-10 0 0
          4.6e-10 0 0 4.6e-10 0 0 4.6e-10 0 0 4.6e-10 0 0
          4.6e-10 0 0 4.6e-10 0 0 4.6e-10 0 0 4.6e-10 0 0
          4.6e-10 0 0 4.6e-10 0 0 4.6e-10 0 0 4.6e-10 0 0
          4.6e-10 0 0 4.6e-10 0 0 4.6e-10 0 0 4.6e-10 0 0
          4.6e-10 0 0 4.6e-10 0 0 4.6e-10 0 0 4.6e-10 0 0
          4.6e-10 0 0 4.6e-10 0 0 4.6e-10 0 0 4.6e-10 0 0
          4.6e-10 0 0 4.6e-10 0 0 4.6e-10 0 0 4.6e-10 0 0
          4.6e-10 0 0 4.6e-10 0 0 4.6e-10 0 0 4.6e-10 0 0
          4.6e-10 0 0 4.6e-10 0 0 4.6e-10 0 0 4.6e-10 0 0
          4.6e-10 0 0 4.6e-10 0 0 4.6e-10 0 0 4.6e-10 0 0
          4.6e-10 0 0 4.6e-10 0 0 4.6e-10 0 0 4.6e-10 0 0
          4.6e-10 0 0 4.6e-10 0 0 4.6e-10 0 0 4.6e-10 0 0
          4.6e-10 0 0 4.6e-10 0 0 4.6e-10 0 0 4.6e-10 0 0
          4.6e-10 0 0 4.6e-10 0 0 4.6e-10 0 0 4.6e-10 0 0
          4.6e-10 0 0 4.6e-10 0 0 4.6e-10 0 0 4.6e-10 0 0
          4.6e-10 0 0 4.6e-10 0 0 4.6e-10 0 0 4.6e-10 0 0
          4.6e-10 0 0 4.6e-10 0 0 4.6e-10 0 0 4.6e-10 0 0
          4.6e-10 0 0 4.6e-10 0 0 4.6e-10 0 0 4.6e-10 0 0
          4.6e-10 0 0 4.6e-10 0 0 4.6e-10 0 0 4.6e-10 0 0
          4.6e-10 0 0 4.6e-10 0 0 4.6e-10 0 0 4.6e-10 0 0
          4.6e-10 0 0 4.6e-10 0 0 4.6e-10 0 0 4.6e-10 0 0
          4.6e-10 0 0 4.6e-10 0 0 4.6e-10 0 0 4.6e-10 0 0
          4.6e-10 0 0 4.6e-10 0 0 4.6e-10 0 0 4.6e-10 0 0
          4.6e-10 0 0 4.6e-10 0 0 4.6e-10 0 0 4.6e-10 0 0
          4.6e-10 0 0 4.6e-10 0 0 4.6e-10 0 0 4.6e-10 0 0
          4.6e-10 0 0 4.6e-10 0 0 4.6e-10 0 0 4.6e-10 0 0
          4.6e-10 0 0 4.6e-10 0 0 4.6e-10 0 0 4.6e-10 0 0
          4.6e-10 0 0 4.6e-10 0 0 4.6e-10 0 0 4.6e-10 0 0
          4.6e-10 0 0 4.6e-10 0 0 4.6e-10 0 0 4.6e-10 0 0
          4.6e-10 0 0 4.6e-10 0 0 4.6e-10 0 0 4.6e-10 0 0
          4.6e-10 0 0 4.6e-10 0 0 4.6e-10 0 0 4.6e-10 0 0
          4.6e-10 0 0 4.6e-10 0 0 4.6e-10 0 0 4.6e-10 0 0
          4.6e-10 0 0 4.6e-10 0 0 4.6e-10 0 0 4.6e-10 0 0
          4.6e-10 0 0 4.6e-10 0 0 4.6e-10 0 0 4.6e-10 0 0
          4.6e-10 0 0 4.6e-10 0 0 4.6e-10 0 0 4.6e-10 0 0
          4.6e-10 0 0 4.6e-10 0 0 4.6e-10 0 0 4.6e-10 0 0
          4.6e-10 0 0 4.6e-10 0 0 4.6e-10 0 0 4.6e-10 0 0
          4.6e-10 0 0 4.6e-10 0 0 4.6e-10 0 0 4.6e-10 0 0
          4.6e-10 0 0 4.6e-10 0 0 4.6e-10 0 0 4.6e-10 0 0
          4.6e-10 0 0 4.6e-10 0 0 4.6e-10 0 0 4.6e-10 0 0
          4.6e-10 0 0 4.6e-10 0 0 4.6e-10 0 0 4.6e-10 0 0
          4.6e-10 0 0
        </DataArray>
        <DataArray type="Float32" Name="intrinsicPerm[1]" NumberOfComponents="3" format="ascii">
          0 9.05e-12 0 0 9.05e-12 0 0 9.05e-12 0 0 9.05e-12 0
          0 9.05e-12 0 0 9.05e-12 0 0 9.05e-12 0 0 9.05e-12 0
          0 9.05e-12 0 0 9.05e-12 0 0 9.05e-12 0 0 9.05e-12 0
          0 9.05e-12 0 0 9.05e-12 0 0 9.05e-12 0 0 9.05e-12 0
          0 9.05e-12 0 0 9.05e-12 0 0 4.6e-10 0 0 4.6e-10 0
          0 4.6e-10 0 0 4.6e-10 0 0 4.6e-10 0 0 4.6e-10 0
          0 4.6e-10 0 0 4.6e-10 0 0 4.6e-10 0 0 4.6e-10 0
          0 4.6e-10 0 0 4.6e-10 0 0 4.6e-10 0 0 4.6e-10 0
          0 4.6e-10 0 0 4.6e-10 0 0 4.6e-10 0 0 4.6e-10 0
          0 4.6e-10 0 0 4.6e-10 0 0 4.6e-10 0 0 4.6e-10 0
          0 4.6e-10 0 0 4.6e-10 0 0 4.6e-10 0 0 4.6e-10 0
          0 4.6e-10 0 0 4.6e-10 0 0 4.6e-10 0 0 4.6e-10 0
          0 4.6e-10 0 0 4.6e-10 0 0 9.05e-12 0 0 9.05e-12 0
          0 9.05e-12 0 0 9.05e-12 0 0 9.05e-12 0 0 9.05e-12 0
          0 9.05e-12 0 0 9.05e-12 0 0 9.05e-12 0 0 4.6e-10 0
          0 4.6e-10 0 0 4.6e-10 0 0 4.6e-10 0 0 4.6e-10 0
          0 4.6e-10 0 0 4.6e-10 0 0 4.6e-10 0 0 4.6e-10 0
          0 4.6e-10 0 0 4.6e-10 0 0 4.6e-10 0 0 4.6e-10 0
          0 4.6e-10 0 0 4.6e-10 0 0 4.6e-10 0 0 9.05e-12 0
          0 9.05e-12 0 0 9.05e-12 0 0 9.05e-12 0 0 9.05e-12 0
          0 9.05e-12 0 0 9.05e-12 0 0 9.05e-12 0 0 9.05e-12 0
          0 4.6e-10 0 0 4.6e-10 0 0 4.6e-10 0 0 4.6e-10 0
          0 4.6e-10 0 0 4.6e-10 0 0 4.6e-10 0 0 4.6e-10 0
          0 4.6e-10 0 0 4.6e-10 0 0 4.6e-10 0 0 4.6e-10 0
          0 4.6e-10 0 0 4.6e-10 0 0 4.6e-10 0 0 4.6e-10 0
          0 9.05e-12 0 0 9.05e-12 0 0 9.05e-12 0 0 9.05e-12 0
          0 9.05e-12 0 0 9.05e-12 0 0 9.05e-12 0 0 9.05e-12 0
          0 9.05e-12 0 0 4.6e-10 0 0 4.6e-10 0 0 4.6e-10 0
          0 4.6e-10 0 0 4.6e-10 0 0 4.6e-10 0 0 4.6e-10 0
          0 4.6e-10 0 0 4.6e-10 0 0 4.6e-10 0 0 4.6e-10 0
          0 4.6e-10 0 0 4.6e-10 0 0 4.6e-10 0 0 4.6e-10 0
          0 4.6e-10 0 0 9.05e-12 0 0 9.05e-12 0 0 9.05e-12 0
          0 9.05e-12 0 0 9.05e-12 0 0 9.05e-12 0 0 9.05e-12 0
          0 9.05e-12 0 0 9.05e-12 0 0 4.6e-10 0 0 4.6e-10 0
          0 4.6e-10 0 0 4.6e-10 0 0 4.6e-10 0 0 4.6e-10 0
          0 4.6e-10 0 0 4.6e-10 0 0 4.6e-10 0 0 4.6e-10 0
          0 4.6e-10 0 0 4.6e-10 0 0 4.6e-10 0 0 4.6e-10 0
          0 4.6e-10 0 0 4.6e-10 0 0 9.05e-12 0 0 9.05e-12 0
          0 9.05e-12 0 0 9.05e-12 0 0 9.05e-12 0 0 9.05e-12 0
          0 9.05e-12 0 0 9.05e-12 0 0 9.05e-12 0 0 4.6e-10 0
          0 4.6e-10 0 0 4.6e-10 0 0 4.6e-10 0 0 4.6e-10 0
          0 4.6e-10 0 0 4.6e-10 0 0 4.6e-10 0 0 4.6e-10 0
          0 4.6e-10 0 0 4.6e-10 0 0 4.6e-10 0 0 4.6e-10 0
          0 4.6e-10 0 0 4.6e-10 0 0 4.6e-10 0 0 9.05e-12 0
          0 9.05e-12 0 0 9.05e-12 0 0 9.05e-12 0 0 9.05e-12 0