<?xml version="1.0"?>
<VTKFile type="UnstructuredGrid" version="0.1" byte_order="LittleEndian">
  <UnstructuredGrid>
    <Piece NumberOfCells="96" NumberOfPoints="117">
      <CellData Scalars="pressure_liquid">
        <DataArray type="Float32" Name="pressure_liquid" NumberOfComponents="1" format="ascii">
          2.61061e+07 2.61069e+07 2.61078e+07 2.61088e+07 2.61099e+07 2.61112e+07 2.61126e+07 2.61145e+07 2.61153e+07 2.61158e+07 2.61161e+07 2.61162e+07
          2.60799e+07 2.60807e+07 2.60817e+07 2.60827e+07 2.60839e+07 2.60852e+07 2.60868e+07 2.60887e+07 2.60895e+07 2.609e+07 2.60904e+07 2.60905e+07
          2.60538e+07 2.60547e+07 2.60558e+07 2.60569e+07 2.60581e+07 2.60595e+07 2.60611e+07 2.60629e+07 2.60635e+07 2.60639e+07 2.60643e+07 2.60644e+07
          2.60276e+07 2.60287e+07 2.60297e+07 2.60309e+07 2.60322e+07 2.60337e+07 2.60353e+07 2.6037e+07 2.60376e+07 2.6038e+07 2.60383e+07 2.60385e+07
          2.60014e+07 2.60025e+07 2.60036e+07 2.60048e+07 2.60062e+07 2.60077e+07 2.60093e+07 2.60112e+07 2.60117e+07 2.60123e+07 2.60126e+07 2.60127e+07
          2.59752e+07 2.59763e+07 2.59774e+07 2.59786e+07 2.598e+07 2.59815e+07 2.59832e+07 2.59852e+07 2.5986e+07 2.59867e+07 2.5987e+07 2.59871e+07
          2.59489e+07 2.595e+07 2.59511e+07 2.59523e+07 2.59537e+07 2.59551e+07 2.59567e+07 2.59584e+07 2.59599e+07 2.59607e+07 2.59611e+07 2.59611e+07
          2.59226e+07 2.59236e+07 2.59247e+07 2.59259e+07 2.59272e+07 2.59287e+07 2.59301e+07 2.59316e+07 2.59329e+07 2.59337e+07 2.59342e+07 2.59342e+07
        </DataArray>
        <DataArray type="Float32" Name="pressure_gas" NumberOfComponents="1" format="ascii">
          2.61111e+07 2.61119e+07 2.61128e+07 2.61138e+07 2.61149e+07 2.61162e+07 2.61176e+07 2.61195e+07 2.61203e+07 2.61208e+07 2.61211e+07 2.61212e+07
          2.60899e+07 2.60907e+07 2.60917e+07 2.60927e+07 2.60939e+07 2.60952e+07 2.60968e+07 2.60987e+07 2.60995e+07 2.61e+07 2.61004e+07 2.61005e+07
          2.60638e+07 2.60647e+07 2.60658e+07 2.60669e+07 2.60681e+07 2.60695e+07 2.60711e+07 2.60729e+07 2.60735e+07 2.60739e+07 2.60743e+07 2.60744e+07
          2.60376e+07 2.60387e+07 2.60397e+07 2.60409e+07 2.60422e+07 2.60437e+07 2.60453e+07 2.6047e+07 2.60476e+07 2.6048e+07 2.60483e+07 2.60485e+07
          2.60114e+07 2.60125e+07 2.60136e+07 2.60148e+07 2.60162e+07 2.60177e+07 2.60193e+07 2.60212e+07 2.60217e+07 2.60223e+07 2.60226e+07 2.60227e+07
          2.59852e+07 2.59863e+07 2.59874e+07 2.59886e+07 2.599e+07 2.59915e+07 2.59932e+07 2.59952e+07 2.5996e+07 2.59967e+07 2.5997e+07 2.59971e+07
          2.59589e+07 2.596e+07 2.59611e+07 2.59623e+07 2.59637e+07 2.59651e+07 2.59667e+07 2.59684e+07 2.59699e+07 2.59707e+07 2.59711e+07 2.59711e+07
          2.59326e+07 2.59336e+07 2.59347e+07 2.59359e+07 2.59372e+07 2.59387e+07 2.59401e+07 2.59416e+07 2.59429e+07 2.59437e+07 2.59442e+07 2.59442e+07
        </DataArray>
        <DataArray type="Float32" Name="density_liquid" NumberOfComponents="1" format="ascii">
          1082.32 1082.32 1082.33 1082.33 1082.33 1082.33 1082.33 1082.19 1019.29 1019.21 1019.21 1019.29
          1082.31 1082.31 1082.31 1082.31 1082.32 1082.32 1082.32 1082.28 1019.28 1019.21 1019.21 1019.28
          1082.3 1082.3 1082.3 1082.3 1082.3 1082.31 1082.31 1082.27 1019.27 1019.2 1019.2 1019.27
          1082.29 1082.29 1082.29 1082.29 1082.29 1082.29 1082.3 1082.26 1019.26 1019.19 1019.19 1019.27
          1082.28 1082.28 1082.28 1082.28 1082.28 1082.28 1082.28 1082.25 1019.25 1019.18 1019.18 1019.26
          1082.27 1082.27 1082.27 1082.27 1082.27 1082.27 1082.27 1082.24 1019.32 1019.25 1019.25 1019.32
          1082.26 1082.26 1082.26 1082.26 1082.26 1082.26 1082.26 1082.26 1082.24 1082.24 1082.24 1082.24
          1082.25 1082.25 1082.25 1082.25 1082.25 1082.25 1082.25 1082.25 1082.25 1082.25 1082.25 1082.25
        </DataArray>
        <DataArray type="Float32" Name="density_gas" NumberOfComponents="1" format="ascii">
          968.169 968.173 968.177 968.181 968.186 968.192 968.194 966.307 525.773 525.471 525.476 525.791
          968.073 968.077 968.081 968.086 968.091 968.097 968.104 967.63 525.415 525.112 525.118 525.431
          967.954 967.959 967.963 967.968 967.974 967.98 967.987 967.562 524.965 524.661 524.666 524.985
          967.836 967.84 967.845 967.85 967.856 967.863 967.87 967.451 524.517 524.213 524.218 524.539
          967.717 967.721 967.726 967.732 967.738 967.745 967.752 967.321 524.07 523.767 523.773 524.088
          967.597 967.602 967.607 967.613 967.619 967.626 967.633 967.145 523.938 523.637 523.643 523.956
          967.478 967.483 967.488 967.493 967.499 967.506 967.513 967.52 967.129 967.16 967.167 967.16
          967.359 967.363 967.368 967.373 967.379 967.386 967.392 967.399 967.405 967.408 967.41 967.411
        </DataArray>
        <DataArray type="Float32" Name="saturation_liquid" NumberOfComponents="1" format="ascii">
          1 1 1 1 1 1 1 1 1 1 1 1
          1 1 1 1 1 1 1 1 1 1 1 1
          1 1 1 1 1 1 1 1 1 1 1 1
          1 1 1 1 1 1 1 1 1 1 1 1
          1 1 1 1 1 1 1 1 1 1 1 1
          1 1 1 1 1 1 1 1 1 1 1 1
          1 1 1 1 1 1 1 1 1 1 1 1
          1 1 1 1 1 1 1 1 1 1 1 1
        </DataArray>
        <DataArray type="Float32" Name="saturation_gas" NumberOfComponents="1" format="ascii">
          0 0 0 0 0 0 0 0 0 0 0 0
          0 0 0 0 0 0 0 0 0 0 0 0
          0 0 0 0 0 0 0 0 0 0 0 0
          0 0 0 0 0 0 0 0 0 0 0 0
          0 0 0 0 0 0 0 0 0 0 0 0
          0 0 0 0 0 0 0 0 0 0 0 0
          0 0 0 0 0 0 0 0 0 0 0 0
          0 0 0 0 0 0 0 0 0 0 0 0
        </DataArray>
        <DataArray type="Float32" Name="relativePerm_liquid" NumberOfComponents="1" format="ascii">
          1 1 1 1 1 1 1 1 1 1 1 1
          1 1 1 1 1 1 1 1 1 1 1 1
          1 1 1 1 1 1 1 1 1 1 1 1
          1 1 1 1 1 1 1 1 1 1 1 1
          1 1 1 1 1 1 1 1 1 1 1 1
          1 1 1 1 1 1 1 1 1 1 1 1
          1 1 1 1 1 1 1 1 1 1 1 1
          1 1 1 1 1 1 1 1 1 1 1 1
        </DataArray>
        <DataArray type="Float32" Name="relativePerm_gas" NumberOfComponents="1" format="ascii">
          0 0 0 0 0 0 0 0 0 0 0 0
          0 0 0 0 0 0 0 0 0 0 0 0
          0 0 0 0 0 0 0 0 0 0 0 0
          0 0 0 0 0 0 0 0 0 0 0 0
          0 0 0 0 0 0 0 0 0 0 0 0
          0 0 0 0 0 0 0 0 0 0 0 0
          0 0 0 0 0 0 0 0 0 0 0 0
          0 0 0 0 0 0 0 0 0 0 0 0
        </DataArray>
        <DataArray type="Float32" Name="porosity" NumberOfComponents="1" format="ascii">
          0.3 0.3 0.3 0.3 0.3 0.3 0.3 0.3 0.3 0.3 0.3 0.3
          0.3 0.3 0.3 0.3 0.3 0.3 0.3 0.3 0.3 0.3 0.3 0.3
          0.3 0.3 0.3 0.3 0.3 0.3 0.3 0.3 0.3 0.3 0.3 0.3
          0.3 0.3 0.3 0.3 0.3 0.3 0.3 0.3 0.3 0.3 0.3 0.3
          0.3 0.3 0.3 0.3 0.3 0.3 0.3 0.3 0.3 0.3 0.3 0.3
          0.3 0.3 0.3 0.3 0.3 0.3 0.3 0.3 0.3 0.3 0.3 0.3
          0.3 0.3 0.3 0.3 0.3 0.3 0.3 0.3 0.3 0.3 0.3 0.3
          0.3 0.3 0.3 0.3 0.3 0.3 0.3 0.3 0.3 0.3 0.3 0.3
        </DataArray>
        <DataArray type="Float32" Name="temperature" NumberOfComponents="1" format="ascii">
          293.15 293.15 293.15 293.15 293.15 293.15 293.151 293.64 393.066 393.15 393.15 393.065
          293.15 293.15 293.15 293.15 293.15 293.15 293.15 293.275 393.066 393.15 393.15 393.066
          293.15 293.15 293.15 293.15 293.15 293.15 293.15 293.262 393.066 393.15 393.15 393.064
          293.15 293.15 293.15 293.15 293.15 293.15 293.15 293.26 393.066 393.15 393.15 393.064
          293.15 293.15 293.15 293.15 293.15 293.15 293.15 293.264 393.065 393.15 393.15 393.065
          293.15 293.15 293.15 293.15 293.15 293.15 293.15 293.278 392.981 393.066 393.066 392.981
          293.15 293.15 293.15 293.15 293.15 293.15 293.15 293.15 293.253 293.246 293.244 293.246
          293.15 293.15 293.15 293.15 293.15 293.15 293.15 293.15 293.15 293.15 293.15 293.15
        </DataArray>
        <DataArray type="Float32" Name="moleFrac_liquid^Brine" NumberOfComponents="1" format="ascii">
          0.995 0.995 0.995 0.995 0.995 0.995 0.995 0.995 0.995 0.995 0.995 0.995
          0.995 0.995 0.995 0.995 0.995 0.995 0.995 0.995 0.995 0.995 0.995 0.995
          0.995 0.995 0.995 0.995 0.995 0.995 0.995 0.995 0.995 0.995 0.995 0.995
          0.995 0.995 0.995 0.995 0.995 0.995 0.995 0.995 0.995 0.995 0.995 0.995
          0.995 0.995 0.995 0.995 0.995 0.995 0.995 0.995 0.995 0.995 0.995 0.995
          0.995 0.995 0.995 0.995 0.995 0.995 0.995 0.995 0.995 0.995 0.995 0.995
          0.995 0.995 0.995 0.995 0.995 0.995 0.995 0.995 0.995 0.995 0.995 0.995
          0.995 0.995 0.995 0.995 0.995 0.995 0.995 0.995 0.995 0.995 0.995 0.995
        </DataArray>
        <DataArray type="Float32" Name="moleFrac_liquid^CO2" NumberOfComponents="1" format="ascii">
          0.005 0.005 0.005 0.005 0.005 0.005 0.005 0.005 0.005 0.005 0.005 0.005
          0.005 0.005 0.005 0.005 0.005 0.005 0.005 0.005 0.005 0.005 0.005 0.005
          0.005 0.005 0.005 0.005 0.005 0.005 0.005 0.005 0.005 0.005 0.005 0.005
          0.005 0.005 0.005 0.005 0.005 0.005 0.005 0.005 0.005 0.005 0.005 0.005
          0.005 0.005 0.005 0.005 0.005 0.005 0.005 0.005 0.005 0.005 0.005 0.005
          0.005 0.005 0.005 0.005 0.005 0.005 0.005 0.005 0.005 0.005 0.005 0.005
          0.005 0.005 0.005 0.005 0.005 0.005 0.005 0.005 0.005 0.005 0.005 0.005
          0.005 0.005 0.005 0.005 0.005 0.005 0.005 0.005 0.005 0.005 0.005 0.005
        </DataArray>
        <DataArray type="Float32" Name="moleFrac_gas^Brine" NumberOfComponents="1" format="ascii">
          0.0032749 0.00327492 0.00327493 0.00327495 0.00327497 0.00327499 0.00327512 0.00332156 0.0296904 0.0297367 0.0297368 0.0296904
          0.00327387 0.00327388 0.0032739 0.00327392 0.00327394 0.00327396 0.00327399 0.0032858 0.0296786 0.0297252 0.0297252 0.0296788
          0.00327347 0.00327348 0.0032735 0.00327352 0.00327354 0.00327356 0.00327359 0.0032842 0.0296726 0.0297192 0.0297192 0.0296722
          0.00327306 0.00327308 0.0032731 0.00327312 0.00327314 0.00327316 0.00327319 0.00328361 0.0296667 0.0297132 0.0297133 0.0296659
          0.00327265 0.00327267 0.00327269 0.00327271 0.00327273 0.00327276 0.00327279 0.00328352 0.0296607 0.0297073 0.0297073 0.0296608
          0.00327225 0.00327226 0.00327228 0.0032723 0.00327233 0.00327235 0.00327239 0.00328451 0.0296085 0.029655 0.0296551 0.0296088
          0.00327184 0.00327185 0.00327187 0.00327189 0.00327192 0.00327194 0.00327197 0.00327201 0.0032817 0.00328106 0.00328094 0.00328112
          0.00327143 0.00327144 0.00327146 0.00327148 0.0032715 0.00327153 0.00327155 0.00327158 0.0032716 0.00327162 0.00327162 0.00327163
        </DataArray>
        <DataArray type="Float32" Name="moleFrac_gas^CO2" NumberOfComponents="1" format="ascii">
          0.25956 0.25956 0.259559 0.259558 0.259557 0.259557 0.259557 0.260221 0.302203 0.302071 0.302069 0.302199
          0.25953 0.259529 0.259528 0.259528 0.259527 0.259526 0.259525 0.259693 0.302271 0.302138 0.302136 0.302266
          0.259549 0.259548 0.259547 0.259547 0.259546 0.259545 0.259544 0.259694 0.302397 0.302265 0.302263 0.302395
          0.259568 0.259567 0.259566 0.259566 0.259565 0.259564 0.259562 0.259711 0.302523 0.302391 0.302389 0.302522
          0.259587 0.259586 0.259585 0.259584 0.259583 0.259582 0.259581 0.259734 0.302649 0.302516 0.302514 0.302644
          0.259606 0.259605 0.259604 0.259603 0.259602 0.259601 0.2596 0.259773 0.302903 0.30277 0.302768 0.302898
          0.259625 0.259624 0.259623 0.259622 0.259621 0.25962 0.259619 0.259618 0.259757 0.259747 0.259744 0.259747
          0.259644 0.259643 0.259642 0.259641 0.25964 0.259639 0.259638 0.259637 0.259637 0.259636 0.259636 0.259636
        </DataArray>
      </CellData>
      <Points>
        <DataArray type="Float32" Name="Coordinates" NumberOfComponents="3" format="ascii">
          0 20 0 2.5 20 0 0 22.5 0 2.5 22.5 0
          5 20 0 5 22.5 0 7.5 20 0 7.5 22.5 0
          10 20 0 10 22.5 0 12.5 20 0 12.5 22.5 0
          15 20 0 15 22.5 0 17.5 20 0 17.5 22.5 0
          20 20 0 20 22.5 0 22.5 20 0 22.5 22.5 0
          25 20 0 25 22.5 0 27.5 20 0 27.5 22.5 0
          30 20 0 30 22.5 0 0 25 0 2.5 25 0
          5 25 0 7.5 25 0 10 25 0 12.5 25 0
          15 25 0 17.5 25 0 20 25 0 22.5 25 0
          25 25 0 27.5 25 0 30 25 0 0 27.5 0
          2.5 27.5 0 5 27.5 0 7.5 27.5 0 10 27.5 0
          12.5 27.5 0 15 27.5 0 17.5 27.5 0 20 27.5 0
          22.5 27.5 0 25 27.5 0 27.5 27.5 0 30 27.5 0
          0 30 0 2.5 30 0 5 30 0 7.5 30 0
          10 30 0 12.5 30 0 15 30 0 17.5 30 0
          20 30 0 22.5 30 0 25 30 0 27.5 30 0
          30 30 0 0 32.5 0 2.5 32.5 0 5 32.5 0
          7.5 32.5 0 10 32.5 0 12.5 32.5 0 15 32.5 0
          17.5 32.5 0 20 32.5 0 22.5 32.5 0 25 32.5 0
          27.5 32.5 0 30 32.5 0 0 35 0 2.5 35 0
          5 35 0 7.5 35 0 10 35 0 12.5 35 0
          15 35 0 17.5 35 0 20 35 0 22.5 35 0
          25 35 0 27.5 35 0 30 35 0 0 37.5 0
          2.5 37.5 0 5 37.5 0 7.5 37.5 0 10 37.5 0
          12.5 37.5 0 15 37.5 0 17.5 37.5 0 20 37.5 0
          22.5 37.5 0 25 37.5 0 27.5 37.5 0 30 37.5 0
          0 40 0 2.5 40 0 5 40 0 7.5 40 0
          10 40 0 12.5 40 0 15 40 0 17.5 40 0
          20 40 0 22.5 40 0 25 40 0 27.5 40 0
          30 40 0
        </DataArray>
      </Points>
      <Cells>
        <DataArray type="Int32" Name="connectivity" NumberOfComponents="1" format="ascii">
          0 1 3 2 1 4 5 3 4 6 7 5
          6 8 9 7 8 10 11 9 10 12 13 11
          12 14 15 13 14 16 17 15 16 18 19 17
          18 20 21 19 20 22 23 21 22 24 25 23
          2 3 27 26 3 5 28 27 5 7 29 28
          7 9 30 29 9 11 31 30 11 13 32 31
          13 15 33 32 15 17 34 33 17 19 35 34
          19 21 36 35 21 23 37 36 23 25 38 37
          26 27 40 39 27 28 41 40 28 29 42 41
          29 30 43 42 30 31 44 43 31 32 45 44
          32 33 46 45 33 34 47 46 34 35 48 47
          35 36 49 48 36 37 50 49 37 38 51 50
          39 40 53 52 40 41 54 53 41 42 55 54
          42 43 56 55 43 44 57 56 44 45 58 57
          45 46 59 58 46 47 60 59 47 48 61 60
          48 49 62 61 49 50 63 62 50 51 64 63
          52 53 66 65 53 54 67 66 54 55 68 67
          55 56 69 68 56 57 70 69 57 58 71 70
          58 59 72 71 59 60 73 72 60 61 74 73
          61 62 75 74 62 63 76 75 63 64 77 76
          65 66 79 78 66 67 80 79 67 68 81 80
          68 69 82 81 69 70 83 82 70 71 84 83
          71 72 85 84 72 73 86 85 73 74 87 86
          74 75 88 87 75 76 89 88 76 77 90 89
          78 79 92 91 79 80 93 92 80 81 94 93
          81 82 95 94 82 83 96 95 83 84 97 96
          84 85 98 97 85 86 99 98 86 87 100 99
          87 88 101 100 88 89 102 101 89 90 103 102
          91 92 105 104 92 93 106 105 93 94 107 106
          94 95 108 107 95 96 109 108 96 97 110 109
          97 98 111 110 98 99 112 111 99 100 113 112
          100 101 114 113 101 102 115 114 102 103 116 115
        </DataArray>
        <DataArray type="Int32" Name="offsets" NumberOfComponents="1" format="ascii">
          4 8 12 16 20 24 28 32 36 40 44 48
          52 56 60 64 68 72 76 80 84 88 92 96
          100 104 108 112 116 120 124 128 132 136 140 144
          148 152 156 160 164 168 172 176 180 184 188 192
          196 200 204 208 212 216 220 224 228 232 236 240
          244 248 252 256 260 264 268 272 276 280 284 288
          292 296 300 304 308 312 316 320 324 328 332 336
          340 344 348 352 356 360 364 368 372 376 380 384
        </DataArray>
        <DataArray type="UInt8" Name="types" NumberOfComponents="1" format="ascii">
          9 9 9 9 9 9 9 9 9 9 9 9
          9 9 9 9 9 9 9 9 9 9 9 9
          9 9 9 9 9 9 9 9 9 9 9 9
          9 9 9 9 9 9 9 9 9 9 9 9
          9 9 9 9 9 9 9 9 9 9 9 9
          9 9 9 9 9 9 9 9 9 9 9 9
          9 9 9 9 9 9 9 9 9 9 9 9
          9 9 9 9 9 9 9 9 9 9 9 9
        </DataArray>
      </Cells>
    </Piece>
  </UnstructuredGrid>
</VTKFile>
