<?xml version="1.0"?>
<VTKFile type="UnstructuredGrid" version="0.1" byte_order="LittleEndian">
  <UnstructuredGrid>
    <Piece NumberOfCells="384" NumberOfPoints="425">
      <CellData Scalars="pressure_w">
        <DataArray type="Float32" Name="pressure_w" NumberOfComponents="1" format="ascii">
          123225 123003 122776 122541 122295 122030 121731 121346 121011 120911 120793 120670
          120544 120419 120292 120165 120037 119909 119781 119652 119524 119395 119265 119136
          121689 121480 121264 121036 120792 120524 120214 119837 119595 119536 119450 119350
          119242 119129 119013 118894 118774 118652 118529 118405 118281 118156 118031 117906
          120159 119965 119763 119547 119315 119057 118765 118427 118229 118188 118122 118039
          117945 117843 117736 117625 117511 117396 117278 117159 117039 116919 116797 116676
          118636 118460 118274 118076 117862 117626 117362 117065 116897 116864 116810 116739
          116655 116562 116463 116359 116251 116141 116028 115914 115798 115681 115564 115446
          117120 116963 116797 116621 116431 116223 115992 115735 115591 115563 115515 115451
          115374 115288 115195 115097 114994 114888 114780 114669 114558 114445 114331 114216
          115610 115474 115332 115181 115019 114842 114648 114431 114308 114281 114236 114175
          114103 114021 113933 113839 113740 113638 113534 113427 113318 113209 113098 112987
          114106 113992 113874 113751 113620 113480 113325 113151 113047 113018 112971 112911
          112840 112761 112676 112585 112490 112391 112289 112186 112080 111974 111866 111758
          112604 112514 112422 112329 112232 112131 112024 111900 111810 111773 111721 111658
          111586 111508 111424 111335 111242 111146 111048 110947 110844 110740 110635 110529
          111238 111160 111082 111004 110925 110846 110767 110687 110607 110544 110481 110413
          110339 110261 110177 110090 109999 109904 109808 109709 109609 109507 109404 109301
          110007 109929 109852 109774 109696 109618 109540 109462 109386 109315 109245 109173
          109097 109018 108935 108848 108758 108665 108570 108473 108375 108275 108174 108072
          108775 108698 108621 108544 108467 108390 108313 108236 108160 108086 108012 107937
          107859 107779 107695 107609 107520 107428 107334 107239 107142 107044 106944 106844
          107544 107467 107391 107315 107238 107162 107085 107008 106932 106856 106780 106703
          106624 106543 106459 106373 106284 106193 106101 106006 105910 105813 105715 105617
          106313 106236 106161 106086 106010 105934 105857 105781 105704 105627 105550 105471
          105391 105309 105225 105139 105051 104961 104869 104775 104680 104584 104487 104390
          105082 105006 104931 104857 104781 104706 104629 104553 104476 104398 104320 104241
          104160 104078 103994 103907 103819 103730 103638 103545 103451 103355 103259 103163
          103852 103776 103702 103628 103554 103478 103402 103325 103248 103170 103092 103012
          102931 102848 102764 102678 102590 102500 102409 102316 102222 102128 102032 101936
          102623 102548 102475 102401 102327 102251 102175 102099 102021 101943 101864 101784
          101703 101620 101536 101450 101362 101272 101181 101089 100995 100901 100805 100709
        </DataArray>
        <DataArray type="Float32" Name="pressure_n" NumberOfComponents="1" format="ascii">
          123225 123003 122776 122541 122295 122030 121731 121346 121011 120911 120793 120670
          120544 120419 120292 120165 120037 119909 119781 119652 119524 119395 119265 119136
          121689 121480 121264 121036 120792 120524 120214 119837 119595 119536 119450 119350
          119242 119129 119013 118894 118774 118652 118529 118405 118281 118156 118031 117906
          120159 119965 119763 119547 119315 119057 118765 118427 118229 118188 118122 118039
          117945 117843 117736 117625 117511 117396 117278 117159 117039 116919 116797 116676
          118636 118460 118274 118076 117862 117626 117362 117065 116897 116864 116810 116739
          116655 116562 116463 116359 116251 116141 116028 115914 115798 115681 115564 115446
          117120 116963 116797 116621 116431 116223 115992 115735 115591 115563 115515 115451
          115374 115288 115195 115097 114994 114888 114780 114669 114558 114445 114331 114216
          115610 115474 115332 115181 115019 114842 114648 114431 114308 114281 114236 114175
          114103 114021 113933 113839 113740 113638 113534 113427 113318 113209 113098 112987
          114106 113992 113874 113751 113620 113480 113325 113151 113047 113018 112971 112911
          112840 112761 112676 112585 112490 112391 112289 112186 112080 111974 111866 111758
          112604 112514 112422 112329 112232 112131 112024 111900 111810 111773 111721 111658
          111586 111508 111424 111335 111242 111146 111048 110947 110844 110740 110635 110529
          111238 111160 111082 111004 110925 110846 110767 110687 110607 110544 110481 110413
          110339 110261 110177 110090 109999 109904 109808 109709 109609 109507 109404 109301
          110007 109929 109852 109774 109696 109618 109540 109462 109386 109315 109245 109173
          109097 109018 108935 108848 108758 108665 108570 108473 108375 108275 108174 108072
          108776 108698 108621 108544 108467 108390 108313 108236 108160 108086 108012 107937
          107859 107779 107695 107609 107520 107428 107334 107239 107142 107044 106944 106844
          107559 107467 107391 107315 107238 107162 107085 107008 106932 106856 106780 106703
          106624 106543 106459 106373 106284 106193 106101 106006 105910 105813 105715 105617
          106365 106238 106161 106086 106010 105934 105857 105781 105704 105627 105550 105471
          105391 105309 105225 105139 105051 104961 104869 104775 104680 104584 104487 104390
          105171 105016 104931 104857 104781 104706 104629 104553 104476 104398 104320 104241
          104160 104078 103994 103907 103819 103730 103638 103545 103451 103355 103259 103163
          103958 103798 103702 103628 103554 103478 103402 103325 103248 103170 103092 103012
          102931 102848 102764 102678 102590 102500 102409 102316 102222 102128 102032 101936
          102734 102575 102475 102401 102327 102251 102175 102099 102021 101943 101864 101784
          101703 101620 101536 101450 101362 101272 101181 101089 100995 100901 100805 100709
        </DataArray>
        <DataArray type="Float32" Name="density_w" NumberOfComponents="1" format="ascii">
          1000 1000 1000 1000 1000 1000 1000 1000 1000 1000 1000 1000
          1000 1000 1000 1000 1000 1000 1000 1000 1000 1000 1000 1000
          1000 1000 1000 1000 1000 1000 1000 1000 1000 1000 1000 1000
          1000 1000 1000 1000 1000 1000 1000 1000 1000 1000 1000 1000
          1000 1000 1000 1000 1000 1000 1000 1000 1000 1000 1000 1000
          1000 1000 1000 1000 1000 1000 1000 1000 1000 1000 1000 1000
          1000 1000 1000 1000 1000 1000 1000 1000 1000 1000 1000 1000
          1000 1000 1000 1000 1000 1000 1000 1000 1000 1000 1000 1000
          1000 1000 1000 1000 1000 1000 1000 1000 1000 1000 1000 1000
          1000 1000 1000 1000 1000 1000 1000 1000 1000 1000 1000 1000
          1000 1000 1000 1000 1000 1000 1000 1000 1000 1000 1000 1000
          1000 1000 1000 1000 1000 1000 1000 1000 1000 1000 1000 1000
          1000 1000 1000 1000 1000 1000 1000 1000 1000 1000 1000 1000
          1000 1000 1000 1000 1000 1000 1000 1000 1000 1000 1000 1000
          1000 1000 1000 1000 1000 1000 1000 1000 1000 1000 1000 1000
          1000 1000 1000 1000 1000 1000 1000 1000 1000 1000 1000 1000
          1000 1000 1000 1000 1000 1000 1000 1000 1000 1000 1000 1000
          1000 1000 1000 1000 1000 1000 1000 1000 1000 1000 1000 1000
          1000 1000 1000 1000 1000 1000 1000 1000 1000 1000 1000 1000
          1000 1000 1000 1000 1000 1000 1000 1000 1000 1000 1000 1000
          1000 1000 1000 1000 1000 1000 1000 1000 1000 1000 1000 1000
          1000 1000 1000 1000 1000 1000 1000 1000 1000 1000 1000 1000
          1000 1000 1000 1000 1000 1000 1000 1000 1000 1000 1000 1000
          1000 1000 1000 1000 1000 1000 1000 1000 1000 1000 1000 1000
          1000 1000 1000 1000 1000 1000 1000 1000 1000 1000 1000 1000
          1000 1000 1000 1000 1000 1000 1000 1000 1000 1000 1000 1000
          1000 1000 1000 1000 1000 1000 1000 1000 1000 1000 1000 1000
          1000 1000 1000 1000 1000 1000 1000 1000 1000 1000 1000 1000
          1000 1000 1000 1000 1000 1000 1000 1000 1000 1000 1000 1000
          1000 1000 1000 1000 1000 1000 1000 1000 1000 1000 1000 1000
          1000 1000 1000 1000 1000 1000 1000 1000 1000 1000 1000 1000
          1000 1000 1000 1000 1000 1000 1000 1000 1000 1000 1000 1000
        </DataArray>
        <DataArray type="Float32" Name="density_n" NumberOfComponents="1" format="ascii">
          1460 1460 1460 1460 1460 1460 1460 1460 1460 1460 1460 1460
          1460 1460 1460 1460 1460 1460 1460 1460 1460 1460 1460 1460
          1460 1460 1460 1460 1460 1460 1460 1460 1460 1460 1460 1460
          1460 1460 1460 1460 1460 1460 1460 1460 1460 1460 1460 1460
          1460 1460 1460 1460 1460 1460 1460 1460 1460 1460 1460 1460
          1460 1460 1460 1460 1460 1460 1460 1460 1460 1460 1460 1460
          1460 1460 1460 1460 1460 1460 1460 1460 1460 1460 1460 1460
          1460 1460 1460 1460 1460 1460 1460 1460 1460 1460 1460 1460
          1460 1460 1460 1460 1460 1460 1460 1460 1460 1460 1460 1460
          1460 1460 1460 1460 1460 1460 1460 1460 1460 1460 1460 1460
          1460 1460 1460 1460 1460 1460 1460 1460 1460 1460 1460 1460
          1460 1460 1460 1460 1460 1460 1460 1460 1460 1460 1460 1460
          1460 1460 1460 1460 1460 1460 1460 1460 1460 1460 1460 1460
          1460 1460 1460 1460 1460 1460 1460 1460 1460 1460 1460 1460
          1460 1460 1460 1460 1460 1460 1460 1460 1460 1460 1460 1460
          1460 1460 1460 1460 1460 1460 1460 1460 1460 1460 1460 1460
          1460 1460 1460 1460 1460 1460 1460 1460 1460 1460 1460 1460
          1460 1460 1460 1460 1460 1460 1460 1460 1460 1460 1460 1460
          1460 1460 1460 1460 1460 1460 1460 1460 1460 1460 1460 1460
          1460 1460 1460 1460 1460 1460 1460 1460 1460 1460 1460 1460
          1460 1460 1460 1460 1460 1460 1460 1460 1460 1460 1460 1460
          1460 1460 1460 1460 1460 1460 1460 1460 1460 1460 1460 1460
          1460 1460 1460 1460 1460 1460 1460 1460 1460 1460 1460 1460
          1460 1460 1460 1460 1460 1460 1460 1460 1460 1460 1460 1460
          1460 1460 1460 1460 1460 1460 1460 1460 1460 1460 1460 1460
          1460 1460 1460 1460 1460 1460 1460 1460 1460 1460 1460 1460
          1460 1460 1460 1460 1460 1460 1460 1460 1460 1460 1460 1460
          1460 1460 1460 1460 1460 1460 1460 1460 1460 1460 1460 1460
          1460 1460 1460 1460 1460 1460 1460 1460 1460 1460 1460 1460
          1460 1460 1460 1460 1460 1460 1460 1460 1460 1460 1460 1460
          1460 1460 1460 1460 1460 1460 1460 1460 1460 1460 1460 1460
          1460 1460 1460 1460 1460 1460 1460 1460 1460 1460 1460 1460
        </DataArray>
        <DataArray type="Float32" Name="saturation_w" NumberOfComponents="1" format="ascii">
          1 1 1 1 1 1 1 1 1 1 1 1
          1 1 1 1 1 1 1 1 1 1 1 1
          1 1 1 1 1 1 1 1 1 1 1 1
          1 1 1 1 1 1 1 1 1 1 1 1
          1 1 1 1 1 1 1 1 1 1 1 1
          1 1 1 1 1 1 1 1 1 1 1 1
          1 1 1 1 1 1 1 1 1 1 1 1
          1 1 1 1 1 1 1 1 1 1 1 1
          1 1 1 1 1 1 1 1 1 1 1 1
          1 1 1 1 1 1 1 1 1 1 1 1
          1 1 1 1 1 1 1 1 1 1 1 1
          1 1 1 1 1 1 1 1 1 1 1 1
          1 1 1 1 1 1 1 1 1 1 1 1
          1 1 1 1 1 1 1 1 1 1 1 1
          1 1 1 1 1 1 1 1 1 1 1 1
          1 1 1 1 1 1 1 1 1 1 1 1
          1 1 1 1 1 1 1 1 1 1 1 1
          1 1 1 1 1 1 1 1 1 1 1 1
          1 1 1 1 1 1 1 1 1 1 1 1
          1 1 1 1 1 1 1 1 1 1 1 1
          0.999953 1 1 1 1 1 1 1 1 1 1 1
          1 1 1 1 1 1 1 1 1 1 1 1
          0.999253 0.999995 1 1 1 1 1 1 1 1 1 1
          1 1 1 1 1 1 1 1 1 1 1 1
          0.997047 0.999898 1 1 1 1 1 1 1 1 1 1
          1 1 1 1 1 1 1 1 1 1 1 1
          0.993795 0.999505 0.999998 1 1 1 1 1 1 1 1 1
          1 1 1 1 1 1 1 1 1 1 1 1
          0.990281 0.998888 0.99999 1 1 1 1 1 1 1 1 1
          1 1 1 1 1 1 1 1 1 1 1 1
          0.988452 0.998613 0.999983 1 1 1 1 1 1 1 1 1
          1 1 1 1 1 1 1 1 1 1 1 1
        </DataArray>
        <DataArray type="Float32" Name="saturation_n" NumberOfComponents="1" format="ascii">
          0 0 0 0 0 0 0 0 0 0 0 0
          0 0 0 0 0 0 0 0 0 0 0 0
          0 0 0 0 0 0 0 0 0 0 0 0
          0 0 0 0 0 0 0 0 0 0 0 0
          0 0 0 0 0 0 0 0 0 0 0 0
          0 0 0 0 0 0 0 0 0 0 0 0
          0 0 0 0 0 0 0 0 0 0 0 0
          0 0 0 0 0 0 0 0 0 0 0 0
          0 0 0 0 0 0 0 0 0 0 0 0
          0 0 0 0 0 0 0 0 0 0 0 0
          0 0 0 0 0 0 0 0 0 0 0 0
          0 0 0 0 0 0 0 0 0 0 0 0
          0 0 0 0 0 0 0 0 0 0 0 0
          0 0 0 0 0 0 0 0 0 0 0 0
          0 0 0 0 0 0 0 0 0 0 0 0
          0 0 0 0 0 0 0 0 0 0 0 0
          1.12114e-11 0 0 0 0 0 0 0 0 0 0 0
          0 0 0 0 0 0 0 0 0 0 0 0
          2.34979e-07 8.92175e-13 0 0 0 0 0 0 0 0 0 0
          0 0 0 0 0 0 0 0 0 0 0 0
          4.71164e-05 2.27228e-08 9.4369e-15 0 0 0 0 0 0 0 0 0
          0 0 0 0 0 0 0 0 0 0 0 0
          0.000746729 5.31693e-06 3.11571e-10 0 0 0 0 0 0 0 0 0
          0 0 0 0 0 0 0 0 0 0 0 0
          0.00295265 0.00010168 8.81494e-08 1.23346e-13 0 0 0 0 0 0 0 0
          0 0 0 0 0 0 0 0 0 0 0 0
          0.00620479 0.000495398 1.97663e-06 4.6055e-11 0 0 0 0 0 0 0 0
          0 0 0 0 0 0 0 0 0 0 0 0
          0.00971949 0.00111177 1.04131e-05 1.08876e-09 0 0 0 0 0 0 0 0
          0 0 0 0 0 0 0 0 0 0 0 0
          0.0115476 0.00138732 1.6576e-05 2.63306e-09 1.11022e-16 0 0 0 0 0 0 0
          0 0 0 0 0 0 0 0 0 0 0 0
        </DataArray>
        <DataArray type="Float32" Name="relativePerm_w" NumberOfComponents="1" format="ascii">
          1 1 1 1 1 1 1 1 1 1 1 1
          1 1 1 1 1 1 1 1 1 1 1 1
          1 1 1 1 1 1 1 1 1 1 1 1
          1 1 1 1 1 1 1 1 1 1 1 1
          1 1 1 1 1 1 1 1 1 1 1 1
          1 1 1 1 1 1 1 1 1 1 1 1
          1 1 1 1 1 1 1 1 1 1 1 1
          1 1 1 1 1 1 1 1 1 1 1 1
          1 1 1 1 1 1 1 1 1 1 1 1
          1 1 1 1 1 1 1 1 1 1 1 1
          1 1 1 1 1 1 1 1 1 1 1 1
          1 1 1 1 1 1 1 1 1 1 1 1
          1 1 1 1 1 1 1 1 1 1 1 1
          1 1 1 1 1 1 1 1 1 1 1 1
          1 1 1 1 1 1 1 1 1 1 1 1
          1 1 1 1 1 1 1 1 1 1 1 1
          1 1 1 1 1 1 1 1 1 1 1 1
          1 1 1 1 1 1 1 1 1 1 1 1
          0.999985 1 1 1 1 1 1 1 1 1 1 1
          1 1 1 1 1 1 1 1 1 1 1 1
          0.999029 0.999998 1 1 1 1 1 1 1 1 1 1
          1 1 1 1 1 1 1 1 1 1 1 1
          0.991306 0.999827 1 1 1 1 1 1 1 1 1 1
          1 1 1 1 1 1 1 1 1 1 1 1
          0.974098 0.998214 0.999993 1 1 1 1 1 1 1 1 1
          1 1 1 1 1 1 1 1 1 1 1 1
          0.953369 0.993724 0.999921 1 1 1 1 1 1 1 1 1
          1 1 1 1 1 1 1 1 1 1 1 1
          0.933586 0.988073 0.999706 1 1 1 1 1 1 1 1 1
          1 1 1 1 1 1 1 1 1 1 1 1
          0.923966 0.985779 0.999575 1 1 1 1 1 1 1 1 1
          1 1 1 1 1 1 1 1 1 1 1 1
        </DataArray>
        <DataArray type="Float32" Name="relativePerm_n" NumberOfComponents="1" format="ascii">
          0 0 0 0 0 0 0 0 0 0 0 0
          0 0 0 0 0 0 0 0 0 0 0 0
          0 0 0 0 0 0 0 0 0 0 0 0
          0 0 0 0 0 0 0 0 0 0 0 0
          0 0 0 0 0 0 0 0 0 0 0 0
          0 0 0 0 0 0 0 0 0 0 0 0
          0 0 0 0 0 0 0 0 0 0 0 0
          0 0 0 0 0 0 0 0 0 0 0 0
          0 0 0 0 0 0 0 0 0 0 0 0
          0 0 0 0 0 0 0 0 0 0 0 0
          0 0 0 0 0 0 0 0 0 0 0 0
          0 0 0 0 0 0 0 0 0 0 0 0
          0 0 0 0 0 0 0 0 0 0 0 0
          0 0 0 0 0 0 0 0 0 0 0 0
          0 0 0 0 0 0 0 0 0 0 0 0
          0 0 0 0 0 0 0 0 0 0 0 0
          1.87286e-21 0 0 0 0 0 0 0 0 0 0 0
          0 0 0 0 0 0 0 0 0 0 0 0
          3.28716e-13 1.49775e-23 0 0 0 0 0 0 0 0 0 0
          0 0 0 0 0 0 0 0 0 0 0 0
          8.10679e-09 3.81267e-15 2.54983e-27 0 0 0 0 0 0 0 0 0
          0 0 0 0 0 0 0 0 0 0 0 0
          1.57808e-06 1.26237e-10 1.06458e-18 0 0 0 0 0 0 0 0 0
          0 0 0 0 0 0 0 0 0 0 0 0
          2.17258e-05 3.51696e-08 5.06361e-14 3.43462e-25 0 0 0 0 0 0 0 0
          0 0 0 0 0 0 0 0 0 0 0 0
          8.95299e-05 7.21381e-07 1.91135e-11 2.77438e-20 0 0 0 0 0 0 0 0
          0 0 0 0 0 0 0 0 0 0 0 0
          0.000210622 3.3718e-06 4.55108e-10 1.15833e-17 0 0 0 0 0 0 0 0
          0 0 0 0 0 0 0 0 0 0 0 0
          0.000292501 5.14394e-06 1.10483e-09 6.24489e-17 3.64595e-31 0 0 0 0 0 0 0
          0 0 0 0 0 0 0 0 0 0 0 0
        </DataArray>
        <DataArray type="Float32" Name="porosity" NumberOfComponents="1" format="ascii">
          0.4 0.4 0.4 0.4 0.4 0.4 0.4 0.4 0.4 0.4 0.4 0.4
          0.4 0.4 0.4 0.4 0.4 0.4 0.4 0.4 0.4 0.4 0.4 0.4
          0.4 0.4 0.4 0.4 0.4 0.4 0.4 0.4 0.4 0.4 0.4 0.4
          0.4 0.4 0.4 0.4 0.4 0.4 0.4 0.4 0.4 0.4 0.4 0.4
          0.4 0.4 0.4 0.4 0.4 0.4 0.4 0.4 0.4 0.4 0.4 0.4
          0.4 0.4 0.4 0.4 0.4 0.4 0.4 0.4 0.4 0.4 0.4 0.4
          0.4 0.4 0.4 0.4 0.4 0.4 0.4 0.4 0.4 0.4 0.4 0.4
          0.4 0.4 0.4 0.4 0.4 0.4 0.4 0.4 0.4 0.4 0.4 0.4
          0.4 0.4 0.4 0.4 0.4 0.4 0.4 0.4 0.4 0.4 0.4 0.4
          0.4 0.4 0.4 0.4 0.4 0.4 0.4 0.4 0.4 0.4 0.4 0.4
          0.4 0.4 0.4 0.4 0.4 0.4 0.4 0.4 0.4 0.4 0.4 0.4
          0.4 0.4 0.4 0.4 0.4 0.4 0.4 0.4 0.4 0.4 0.4 0.4
          0.4 0.4 0.4 0.4 0.4 0.4 0.4 0.4 0.4 0.4 0.4 0.4
          0.4 0.4 0.4 0.4 0.4 0.4 0.4 0.4 0.4 0.4 0.4 0.4
          0.4 0.4 0.4 0.4 0.4 0.4 0.4 0.4 0.4 0.4 0.4 0.4
          0.4 0.4 0.4 0.4 0.4 0.4 0.4 0.4 0.4 0.4 0.4 0.4
          0.4 0.4 0.4 0.4 0.4 0.4 0.4 0.4 0.4 0.4 0.4 0.4
          0.4 0.4 0.4 0.4 0.4 0.4 0.4 0.4 0.4 0.4 0.4 0.4
          0.4 0.4 0.4 0.4 0.4 0.4 0.4 0.4 0.4 0.4 0.4 0.4
          0.4 0.4 0.4 0.4 0.4 0.4 0.4 0.4 0.4 0.4 0.4 0.4
          0.4 0.4 0.4 0.4 0.4 0.4 0.4 0.4 0.4 0.4 0.4 0.4
          0.4 0.4 0.4 0.4 0.4 0.4 0.4 0.4 0.4 0.4 0.4 0.4
          0.4 0.4 0.4 0.4 0.4 0.4 0.4 0.4 0.4 0.4 0.4 0.4
          0.4 0.4 0.4 0.4 0.4 0.4 0.4 0.4 0.4 0.4 0.4 0.4
          0.4 0.4 0.4 0.4 0.4 0.4 0.4 0.4 0.4 0.4 0.4 0.4
          0.4 0.4 0.4 0.4 0.4 0.4 0.4 0.4 0.4 0.4 0.4 0.4
          0.4 0.4 0.4 0.4 0.4 0.4 0.4 0.4 0.4 0.4 0.4 0.4
          0.4 0.4 0.4 0.4 0.4 0.4 0.4 0.4 0.4 0.4 0.4 0.4
          0.4 0.4 0.4 0.4 0.4 0.4 0.4 0.4 0.4 0.4 0.4 0.4
          0.4 0.4 0.4 0.4 0.4 0.4 0.4 0.4 0.4 0.4 0.4 0.4
          0.4 0.4 0.4 0.4 0.4 0.4 0.4 0.4 0.4 0.4 0.4 0.4
          0.4 0.4 0.4 0.4 0.4 0.4 0.4 0.4 0.4 0.4 0.4 0.4
        </DataArray>
        <DataArray type="Float32" Name="temperature" NumberOfComponents="1" format="ascii">
          293.15 293.15 293.15 293.15 293.15 293.15 293.15 293.15 293.15 293.15 293.15 293.15
          293.15 293.15 293.15 293.15 293.15 293.15 293.15 293.15 293.15 293.15 293.15 293.15
          293.15 293.15 293.15 293.15 293.15 293.15 293.15 293.15 293.15 293.15 293.15 293.15
          293.15 293.15 293.15 293.15 293.15 293.15 293.15 293.15 293.15 293.15 293.15 293.15
          293.15 293.15 293.15 293.15 293.15 293.15 293.15 293.15 293.15 293.15 293.15 293.15
          293.15 293.15 293.15 293.15 293.15 293.15 293.15 293.15 293.15 293.15 293.15 293.15
          293.15 293.15 293.15 293.15 293.15 293.15 293.15 293.15 293.15 293.15 293.15 293.15
          293.15 293.15 293.15 293.15 293.15 293.15 293.15 293.15 293.15 293.15 293.15 293.15
          293.15 293.15 293.15 293.15 293.15 293.15 293.15 293.15 293.15 293.15 293.15 293.15
          293.15 293.15 293.15 293.15 293.15 293.15 293.15 293.15 293.15 293.15 293.15 293.15
          293.15 293.15 293.15 293.15 293.15 293.15 293.15 293.15 293.15 293.15 293.15 293.15
          293.15 293.15 293.15 293.15 293.15 293.15 293.15 293.15 293.15 293.15 293.15 293.15
          293.15 293.15 293.15 293.15 293.15 293.15 293.15 293.15 293.15 293.15 293.15 293.15
          293.15 293.15 293.15 293.15 293.15 293.15 293.15 293.15 293.15 293.15 293.15 293.15
          293.15 293.15 293.15 293.15 293.15 293.15 293.15 293.15 293.15 293.15 293.15 293.15
          293.15 293.15 293.15 293.15 293.15 293.15 293.15 293.15 293.15 293.15 293.15 293.15
          293.15 293.15 293.15 293.15 293.15 293.15 293.15 293.15 293.15 293.15 293.15 293.15
          293.15 293.15 293.15 293.15 293.15 293.15 293.15 293.15 293.15 293.15 293.15 293.15
          293.15 293.15 293.15 293.15 293.15 293.15 293.15 293.15 293.15 293.15 293.15 293.15
          293.15 293.15 293.15 293.15 293.15 293.15 293.15 293.15 293.15 293.15 293.15 293.15
          293.15 293.15 293.15 293.15 293.15 293.15 293.15 293.15 293.15 293.15 293.15 293.15
          293.15 293.15 293.15 293.15 293.15 293.15 293.15 293.15 293.15 293.15 293.15 293.15
          293.15 293.15 293.15 293.15 293.15 293.15 293.15 293.15 293.15 293.15 293.15 293.15
          293.15 293.15 293.15 293.15 293.15 293.15 293.15 293.15 293.15 293.15 293.15 293.15
          293.15 293.15 293.15 293.15 293.15 293.15 293.15 293.15 293.15 293.15 293.15 293.15
          293.15 293.15 293.15 293.15 293.15 293.15 293.15 293.15 293.15 293.15 293.15 293.15
          293.15 293.15 293.15 293.15 293.15 293.15 293.15 293.15 293.15 293.15 293.15 293.15
          293.15 293.15 293.15 293.15 293.15 293.15 293.15 293.15 293.15 293.15 293.15 293.15
          293.15 293.15 293.15 293.15 293.15 293.15 293.15 293.15 293.15 293.15 293.15 293.15
          293.15 293.15 293.15 293.15 293.15 293.15 293.15 293.15 293.15 293.15 293.15 293.15
          293.15 293.15 293.15 293.15 293.15 293.15 293.15 293.15 293.15 293.15 293.15 293.15
          293.15 293.15 293.15 293.15 293.15 293.15 293.15 293.15 293.15 293.15 293.15 293.15
        </DataArray>
      </CellData>
      <Points>
        <DataArray type="Float32" Name="Coordinates" NumberOfComponents="3" format="ascii">
          3 2 0 3.125 2 0 3 2.125 0 3.125 2.125 0
          3.25 2 0 3.25 2.125 0 3.375 2 0 3.375 2.125 0
          3.5 2 0 3.5 2.125 0 3.625 2 0 3.625 2.125 0
          3.75 2 0 3.75 2.125 0 3.875 2 0 3.875 2.125 0
          4 2 0 4 2.125 0 4.125 2 0 4.125 2.125 0
          4.25 2 0 4.25 2.125 0 4.375 2 0 4.375 2.125 0
          4.5 2 0 4.5 2.125 0 4.625 2 0 4.625 2.125 0
          4.75 2 0 4.75 2.125 0 4.875 2 0 4.875 2.125 0
          5 2 0 5 2.125 0 5.125 2 0 5.125 2.125 0
          5.25 2 0 5.25 2.125 0 5.375 2 0 5.375 2.125 0
          5.5 2 0 5.5 2.125 0 5.625 2 0 5.625 2.125 0
          5.75 2 0 5.75 2.125 0 5.875 2 0 5.875 2.125 0
          6 2 0 6 2.125 0 3 2.25 0 3.125 2.25 0
          3.25 2.25 0 3.375 2.25 0 3.5 2.25 0 3.625 2.25 0
          3.75 2.25 0 3.875 2.25 0 4 2.25 0 4.125 2.25 0
          4.25 2.25 0 4.375 2.25 0 4.5 2.25 0 4.625 2.25 0
          4.75 2.25 0 4.875 2.25 0 5 2.25 0 5.125 2.25 0
          5.25 2.25 0 5.375 2.25 0 5.5 2.25 0 5.625 2.25 0
          5.75 2.25 0 5.875 2.25 0 6 2.25 0 3 2.375 0
          3.125 2.375 0 3.25 2.375 0 3.375 2.375 0 3.5 2.375 0
          3.625 2.375 0 3.75 2.375 0 3.875 2.375 0 4 2.375 0
          4.125 2.375 0 4.25 2.375 0 4.375 2.375 0 4.5 2.375 0
          4.625 2.375 0 4.75 2.375 0 4.875 2.375 0 5 2.375 0
          5.125 2.375 0 5.25 2.375 0 5.375 2.375 0 5.5 2.375 0
          5.625 2.375 0 5.75 2.375 0 5.875 2.375 0 6 2.375 0
          3 2.5 0 3.125 2.5 0 3.25 2.5 0 3.375 2.5 0
          3.5 2.5 0 3.625 2.5 0 3.75 2.5 0 3.875 2.5 0
          4 2.5 0 4.125 2.5 0 4.25 2.5 0 4.375 2.5 0
          4.5 2.5 0 4.625 2.5 0 4.75 2.5 0 4.875 2.5 0
          5 2.5 0 5.125 2.5 0 5.25 2.5 0 5.375 2.5 0
          5.5 2.5 0 5.625 2.5 0 5.75 2.5 0 5.875 2.5 0
          6 2.5 0 3 2.625 0 3.125 2.625 0 3.25 2.625 0
          3.375 2.625 0 3.5 2.625 0 3.625 2.625 0 3.75 2.625 0
          3.875 2.625 0 4 2.625 0 4.125 2.625 0 4.25 2.625 0
          4.375 2.625 0 4.5 2.625 0 4.625 2.625 0 4.75 2.625 0
          4.875 2.625 0 5 2.625 0 5.125 2.625 0 5.25 2.625 0
          5.375 2.625 0 5.5 2.625 0 5.625 2.625 0 5.75 2.625 0
          5.875 2.625 0 6 2.625 0 3 2.75 0 3.125 2.75 0
          3.25 2.75 0 3.375 2.75 0 3.5 2.75 0 3.625 2.75 0
          3.75 2.75 0 3.875 2.75 0 4 2.75 0 4.125 2.75 0
          4.25 2.75 0 4.375 2.75 0 4.5 2.75 0 4.625 2.75 0
          4.75 2.75 0 4.875 2.75 0 5 2.75 0 5.125 2.75 0
          5.25 2.75 0 5.375 2.75 0 5.5 2.75 0 5.625 2.75 0
          5.75 2.75 0 5.875 2.75 0 6 2.75 0 3 2.875 0
          3.125 2.875 0 3.25 2.875 0 3.375 2.875 0 3.5 2.875 0
          3.625 2.875 0 3.75 2.875 0 3.875 2.875 0 4 2.875 0
          4.125 2.875 0 4.25 2.875 0 4.375 2.875 0 4.5 2.875 0
          4.625 2.875 0 4.75 2.875 0 4.875 2.875 0 5 2.875 0
          5.125 2.875 0 5.25 2.875 0 5.375 2.875 0 5.5 2.875 0
          5.625 2.875 0 5.75 2.875 0 5.875 2.875 0 6 2.875 0
          3 3 0 3.125 3 0 3.25 3 0 3.375 3 0
          3.5 3 0 3.625 3 0 3.75 3 0 3.875 3 0
          4 3 0 4.125 3 0 4.25 3 0 4.375 3 0
          4.5 3 0 4.625 3 0 4.75 3 0 4.875 3 0
          5 3 0 5.125 3 0 5.25 3 0 5.375 3 0
          5.5 3 0 5.625 3 0 5.75 3 0 5.875 3 0
          6 3 0 3 3.125 0 3.125 3.125 0 3.25 3.125 0
          3.375 3.125 0 3.5 3.125 0 3.625 3.125 0 3.75 3.125 0
          3.875 3.125 0 4 3.125 0 4.125 3.125 0 4.25 3.125 0
          4.375 3.125 0 4.5 3.125 0 4.625 3.125 0 4.75 3.125 0
          4.875 3.125 0 5 3.125 0 5.125 3.125 0 5.25 3.125 0
          5.375 3.125 0 5.5 3.125 0 5.625 3.125 0 5.75 3.125 0
          5.875 3.125 0 6 3.125 0 3 3.25 0 3.125 3.25 0
          3.25 3.25 0 3.375 3.25 0 3.5 3.25 0 3.625 3.25 0
          3.75 3.25 0 3.875 3.25 0 4 3.25 0 4.125 3.25 0
          4.25 3.25 0 4.375 3.25 0 4.5 3.25 0 4.625 3.25 0
          4.75 3.25 0 4.875 3.25 0 5 3.25 0 5.125 3.25 0
          5.25 3.25 0 5.375 3.25 0 5.5 3.25 0 5.625 3.25 0
          5.75 3.25 0 5.875 3.25 0 6 3.25 0 3 3.375 0
          3.125 3.375 0 3.25 3.375 0 3.375 3.375 0 3.5 3.375 0
          3.625 3.375 0 3.75 3.375 0 3.875 3.375 0 4 3.375 0
          4.125 3.375 0 4.25 3.375 0 4.375 3.375 0 4.5 3.375 0
          4.625 3.375 0 4.75 3.375 0 4.875 3.375 0 5 3.375 0
          5.125 3.375 0 5.25 3.375 0 5.375 3.375 0 5.5 3.375 0
          5.625 3.375 0 5.75 3.375 0 5.875 3.375 0 6 3.375 0
          3 3.5 0 3.125 3.5 0 3.25 3.5 0 3.375 3.5 0
          3.5 3.5 0 3.625 3.5 0 3.75 3.5 0 3.875 3.5 0
          4 3.5 0 4.125 3.5 0 4.25 3.5 0 4.375 3.5 0
          4.5 3.5 0 4.625 3.5 0 4.75 3.5 0 4.875 3.5 0
          5 3.5 0 5.125 3.5 0 5.25 3.5 0 5.375 3.5 0
          5.5 3.5 0 5.625 3.5 0 5.75 3.5 0 5.875 3.5 0
          6 3.5 0 3 3.625 0 3.125 3.625 0 3.25 3.625 0
          3.375 3.625 0 3.5 3.625 0 3.625 3.625 0 3.75 3.625 0
          3.875 3.625 0 4 3.625 0 4.125 3.625 0 4.25 3.625 0
          4.375 3.625 0 4.5 3.625 0 4.625 3.625 0 4.75 3.625 0
          4.875 3.625 0 5 3.625 0 5.125 3.625 0 5.25 3.625 0
          5.375 3.625 0 5.5 3.625 0 5.625 3.625 0 5.75 3.625 0
          5.875 3.625 0 6 3.625 0 3 3.75 0 3.125 3.75 0
          3.25 3.75 0 3.375 3.75 0 3.5 3.75 0 3.625 3.75 0
          3.75 3.75 0 3.875 3.75 0 4 3.75 0 4.125 3.75 0
          4.25 3.75 0 4.375 3.75 0 4.5 3.75 0 4.625 3.75 0
          4.75 3.75 0 4.875 3.75 0 5 3.75 0 5.125 3.75 0
          5.25 3.75 0 5.375 3.75 0 5.5 3.75 0 5.625 3.75 0
          5.75 3.75 0 5.875 3.75 0 6 3.75 0 3 3.875 0
          3.125 3.875 0 3.25 3.875 0 3.375 3.875 0 3.5 3.875 0
          3.625 3.875 0 3.75 3.875 0 3.875 3.875 0 4 3.875 0
          4.125 3.875 0 4.25 3.875 0 4.375 3.875 0 4.5 3.875 0
          4.625 3.875 0 4.75 3.875 0 4.875 3.875 0 5 3.875 0
          5.125 3.875 0 5.25 3.875 0 5.375 3.875 0 5.5 3.875 0
          5.625 3.875 0 5.75 3.875 0 5.875 3.875 0 6 3.875 0
          3 4 0 3.125 4 0 3.25 4 0 3.375 4 0
          3.5 4 0 3.625 4 0 3.75 4 0 3.875 4 0
          4 4 0 4.125 4 0 4.25 4 0 4.375 4 0
          4.5 4 0 4.625 4 0 4.75 4 0 4.875 4 0
          5 4 0 5.125 4 0 5.25 4 0 5.375 4 0
          5.5 4 0 5.625 4 0 5.75 4 0 5.875 4 0
          6 4 0
        </DataArray>
      </Points>
      <Cells>
        <DataArray type="Int32" Name="connectivity" NumberOfComponents="1" format="ascii">
          0 1 3 2 1 4 5 3 4 6 7 5
          6 8 9 7 8 10 11 9 10 12 13 11
          12 14 15 13 14 16 17 15 16 18 19 17
          18 20 21 19 20 22 23 21 22 24 25 23
          24 26 27 25 26 28 29 27 28 30 31 29
          30 32 33 31 32 34 35 33 34 36 37 35
          36 38 39 37 38 40 41 39 40 42 43 41
          42 44 45 43 44 46 47 45 46 48 49 47
          2 3 51 50 3 5 52 51 5 7 53 52
          7 9 54 53 9 11 55 54 11 13 56 55
          13 15 57 56 15 17 58 57 17 19 59 58
          19 21 60 59 21 23 61 60 23 25 62 61
          25 27 63 62 27 29 64 63 29 31 65 64
          31 33 66 65 33 35 67 66 35 37 68 67
          37 39 69 68 39 41 70 69 41 43 71 70
          43 45 72 71 45 47 73 72 47 49 74 73
          50 51 76 75 51 52 77 76 52 53 78 77
          53 54 79 78 54 55 80 79 55 56 81 80
          56 57 82 81 57 58 83 82 58 59 84 83
          59 60 85 84 60 61 86 85 61 62 87 86
          62 63 88 87 63 64 89 88 64 65 90 89
          65 66 91 90 66 67 92 91 67 68 93 92
          68 69 94 93 69 70 95 94 70 71 96 95
          71 72 97 96 72 73 98 97 73 74 99 98
          75 76 101 100 76 77 102 101 77 78 103 102
          78 79 104 103 79 80 105 104 80 81 106 105
          81 82 107 106 82 83 108 107 83 84 109 108
          84 85 110 109 85 86 111 110 86 87 112 111
          87 88 113 112 88 89 114 113 89 90 115 114
          90 91 116 115 91 92 117 116 92 93 118 117
          93 94 119 118 94 95 120 119 95 96 121 120
          96 97 122 121 97 98 123 122 98 99 124 123
          100 101 126 125 101 102 127 126 102 103 128 127
          103 104 129 128 104 105 130 129 105 106 131 130
          106 107 132 131 107 108 133 132 108 109 134 133
          109 110 135 134 110 111 136 135 111 112 137 136
          112 113 138 137 113 114 139 138 114 115 140 139
          115 116 141 140 116 117 142 141 117 118 143 142
          118 119 144 143 119 120 145 144 120 121 146 145