<?xml version="1.0"?>
<VTKFile type="UnstructuredGrid" version="0.1" byte_order="LittleEndian">
  <UnstructuredGrid>
    <Piece NumberOfCells="96" NumberOfPoints="117">
      <CellData Scalars="pressure_l">
        <DataArray type="Float32" Name="pressure_l" NumberOfComponents="1" format="ascii">
          2.63084e+07 2.63084e+07 2.63084e+07 2.63084e+07 2.63084e+07 2.63084e+07 2.63084e+07 2.63084e+07 2.63084e+07 2.63084e+07 2.63084e+07 2.63084e+07
          2.62822e+07 2.62822e+07 2.62822e+07 2.62822e+07 2.62822e+07 2.62822e+07 2.62822e+07 2.62822e+07 2.62822e+07 2.62822e+07 2.62822e+07 2.62822e+07
          2.6256e+07 2.6256e+07 2.6256e+07 2.6256e+07 2.6256e+07 2.6256e+07 2.6256e+07 2.6256e+07 2.6256e+07 2.6256e+07 2.6256e+07 2.6256e+07
          2.62298e+07 2.62298e+07 2.62298e+07 2.62298e+07 2.62298e+07 2.62298e+07 2.62298e+07 2.62298e+07 2.62298e+07 2.62298e+07 2.62298e+07 2.62298e+07
          2.62035e+07 2.62035e+07 2.62035e+07 2.62035e+07 2.62035e+07 2.62035e+07 2.62035e+07 2.62035e+07 2.62035e+07 2.62035e+07 2.62035e+07 2.62035e+07
          2.61773e+07 2.61773e+07 2.61773e+07 2.61773e+07 2.61773e+07 2.61773e+07 2.61773e+07 2.61773e+07 2.61773e+07 2.61773e+07 2.61773e+07 2.61773e+07
          2.61511e+07 2.61511e+07 2.61511e+07 2.61511e+07 2.61511e+07 2.61511e+07 2.61511e+07 2.61511e+07 2.61511e+07 2.61511e+07 2.61511e+07 2.61511e+07
          2.61249e+07 2.61249e+07 2.61249e+07 2.61249e+07 2.61249e+07 2.61249e+07 2.61249e+07 2.61249e+07 2.61249e+07 2.61249e+07 2.61249e+07 2.61249e+07
        </DataArray>
        <DataArray type="Float32" Name="pressure_g" NumberOfComponents="1" format="ascii">
          2.63134e+07 2.63134e+07 2.63134e+07 2.63134e+07 2.63134e+07 2.63134e+07 2.63134e+07 2.63134e+07 2.63134e+07 2.63134e+07 2.63134e+07 2.63134e+07
          2.62872e+07 2.62872e+07 2.62872e+07 2.62872e+07 2.62872e+07 2.62872e+07 2.62872e+07 2.62872e+07 2.62872e+07 2.62872e+07 2.62872e+07 2.62872e+07
          2.6261e+07 2.6261e+07 2.6261e+07 2.6261e+07 2.6261e+07 2.6261e+07 2.6261e+07 2.6261e+07 2.6261e+07 2.6261e+07 2.6261e+07 2.6261e+07
          2.62348e+07 2.62348e+07 2.62348e+07 2.62348e+07 2.62348e+07 2.62348e+07 2.62348e+07 2.62348e+07 2.62348e+07 2.62348e+07 2.62348e+07 2.62348e+07
          2.62085e+07 2.62085e+07 2.62085e+07 2.62085e+07 2.62085e+07 2.62085e+07 2.62085e+07 2.62085e+07 2.62085e+07 2.62085e+07 2.62085e+07 2.62085e+07
          2.61823e+07 2.61823e+07 2.61823e+07 2.61823e+07 2.61823e+07 2.61823e+07 2.61823e+07 2.61823e+07 2.61823e+07 2.61823e+07 2.61823e+07 2.61823e+07
          2.61561e+07 2.61561e+07 2.61561e+07 2.61561e+07 2.61561e+07 2.61561e+07 2.61561e+07 2.61561e+07 2.61561e+07 2.61561e+07 2.61561e+07 2.61561e+07
          2.61299e+07 2.61299e+07 2.61299e+07 2.61299e+07 2.61299e+07 2.61299e+07 2.61299e+07 2.61299e+07 2.61299e+07 2.61299e+07 2.61299e+07 2.61299e+07
        </DataArray>
        <DataArray type="Float32" Name="density_l" NumberOfComponents="1" format="ascii">
          1082.33 1082.33 1082.33 1082.33 1082.33 1082.33 1082.33 1082.33 1082.33 1082.33 1082.33 1082.33
          1082.32 1082.32 1082.32 1082.32 1082.32 1082.32 1082.32 1082.32 1082.32 1082.32 1082.32 1082.32
          1082.31 1082.31 1082.31 1082.31 1082.31 1082.31 1082.31 1082.31 1019.16 1019.16 1019.16 1019.16
          1082.3 1082.3 1082.3 1082.3 1082.3 1082.3 1082.3 1082.3 1019.15 1019.15 1019.15 1019.15
          1082.29 1082.29 1082.29 1082.29 1082.29 1082.29 1082.29 1082.29 1019.14 1019.14 1019.14 1019.14
          1082.28 1082.28 1082.28 1082.28 1082.28 1082.28 1082.28 1082.28 1019.13 1019.13 1019.13 1019.13
          1082.27 1082.27 1082.27 1082.27 1082.27 1082.27 1082.27 1082.27 1019.12 1019.12 1019.12 1019.12
          1082.26 1082.26 1082.26 1082.26 1082.26 1082.26 1082.26 1082.26 1019.11 1019.11 1019.11 1019.11
        </DataArray>
        <DataArray type="Float32" Name="density_g" NumberOfComponents="1" format="ascii">
          969.082 969.082 969.082 969.082 969.082 969.082 969.082 969.082 969.082 969.082 969.082 969.082
          968.964 968.964 968.964 968.964 968.964 968.964 968.964 968.964 968.964 968.964 968.964 968.964
          968.846 968.846 968.846 968.846 968.846 968.846 968.846 968.846 527.87 527.87 527.87 527.87
          968.727 968.727 968.727 968.727 968.727 968.727 968.727 968.727 527.421 527.421 527.421 527.421
          968.609 968.609 968.609 968.609 968.609 968.609 968.609 968.609 526.973 526.973 526.973 526.973
          968.491 968.491 968.491 968.491 968.491 968.491 968.491 968.491 526.525 526.525 526.525 526.525
          968.373 968.373 968.373 968.373 968.373 968.373 968.373 968.373 526.077 526.077 526.077 526.077
          968.254 968.254 968.254 968.254 968.254 968.254 968.254 968.254 525.629 525.629 525.629 525.629
        </DataArray>
        <DataArray type="Float32" Name="saturation_l" NumberOfComponents="1" format="ascii">
          1 1 1 1 1 1 1 1 1 1 1 1
          1 1 1 1 1 1 1 1 1 1 1 1
          1 1 1 1 1 1 1 1 1 1 1 1
          1 1 1 1 1 1 1 1 1 1 1 1
          1 1 1 1 1 1 1 1 1 1 1 1
          1 1 1 1 1 1 1 1 1 1 1 1
          1 1 1 1 1 1 1 1 1 1 1 1
          1 1 1 1 1 1 1 1 1 1 1 1
        </DataArray>
        <DataArray type="Float32" Name="saturation_g" NumberOfComponents="1" format="ascii">
          0 0 0 0 0 0 0 0 0 0 0 0
          0 0 0 0 0 0 0 0 0 0 0 0
          0 0 0 0 0 0 0 0 0 0 0 0
          0 0 0 0 0 0 0 0 0 0 0 0
          0 0 0 0 0 0 0 0 0 0 0 0
          0 0 0 0 0 0 0 0 0 0 0 0
          0 0 0 0 0 0 0 0 0 0 0 0
          0 0 0 0 0 0 0 0 0 0 0 0
        </DataArray>
        <DataArray type="Float32" Name="relativePerm_l" NumberOfComponents="1" format="ascii">
          1 1 1 1 1 1 1 1 1 1 1 1
          1 1 1 1 1 1 1 1 1 1 1 1
          1 1 1 1 1 1 1 1 1 1 1 1
          1 1 1 1 1 1 1 1 1 1 1 1
          1 1 1 1 1 1 1 1 1 1 1 1
          1 1 1 1 1 1 1 1 1 1 1 1
          1 1 1 1 1 1 1 1 1 1 1 1
          1 1 1 1 1 1 1 1 1 1 1 1
        </DataArray>
        <DataArray type="Float32" Name="relativePerm_g" NumberOfComponents="1" format="ascii">
          0 0 0 0 0 0 0 0 0 0 0 0
          0 0 0 0 0 0 0 0 0 0 0 0
          0 0 0 0 0 0 0 0 0 0 0 0
          0 0 0 0 0 0 0 0 0 0 0 0
          0 0 0 0 0 0 0 0 0 0 0 0
          0 0 0 0 0 0 0 0 0 0 0 0
          0 0 0 0 0 0 0 0 0 0 0 0
          0 0 0 0 0 0 0 0 0 0 0 0
        </DataArray>
        <DataArray type="Float32" Name="porosity" NumberOfComponents="1" format="ascii">
          0.3 0.3 0.3 0.3 0.3 0.3 0.3 0.3 0.3 0.3 0.3 0.3
          0.3 0.3 0.3 0.3 0.3 0.3 0.3 0.3 0.3 0.3 0.3 0.3
          0.3 0.3 0.3 0.3 0.3 0.3 0.3 0.3 0.3 0.3 0.3 0.3
          0.3 0.3 0.3 0.3 0.3 0.3 0.3 0.3 0.3 0.3 0.3 0.3
          0.3 0.3 0.3 0.3 0.3 0.3 0.3 0.3 0.3 0.3 0.3 0.3
          0.3 0.3 0.3 0.3 0.3 0.3 0.3 0.3 0.3 0.3 0.3 0.3
          0.3 0.3 0.3 0.3 0.3 0.3 0.3 0.3 0.3 0.3 0.3 0.3
          0.3 0.3 0.3 0.3 0.3 0.3 0.3 0.3 0.3 0.3 0.3 0.3
        </DataArray>
        <DataArray type="Float32" Name="temperature" NumberOfComponents="1" format="ascii">
          293.15 293.15 293.15 293.15 293.15 293.15 293.15 293.15 293.15 293.15 293.15 293.15
          293.15 293.15 293.15 293.15 293.15 293.15 293.15 293.15 293.15 293.15 293.15 293.15
          293.15 293.15 293.15 293.15 293.15 293.15 293.15 293.15 393.15 393.15 393.15 393.15
          293.15 293.15 293.15 293.15 293.15 293.15 293.15 293.15 393.15 393.15 393.15 393.15
          293.15 293.15 293.15 293.15 293.15 293.15 293.15 293.15 393.15 393.15 393.15 393.15
          293.15 293.15 293.15 293.15 293.15 293.15 293.15 293.15 393.15 393.15 393.15 393.15
          293.15 293.15 293.15 293.15 293.15 293.15 293.15 293.15 393.15 393.15 393.15 393.15
          293.15 293.15 293.15 293.15 293.15 293.15 293.15 293.15 393.15 393.15 393.15 393.15
        </DataArray>
        <DataArray type="Float32" Name="moleFrac_l^Brine" NumberOfComponents="1" format="ascii">
          0.995 0.995 0.995 0.995 0.995 0.995 0.995 0.995 0.995 0.995 0.995 0.995
          0.995 0.995 0.995 0.995 0.995 0.995 0.995 0.995 0.995 0.995 0.995 0.995
          0.995 0.995 0.995 0.995 0.995 0.995 0.995 0.995 0.995 0.995 0.995 0.995
          0.995 0.995 0.995 0.995 0.995 0.995 0.995 0.995 0.995 0.995 0.995 0.995
          0.995 0.995 0.995 0.995 0.995 0.995 0.995 0.995 0.995 0.995 0.995 0.995
          0.995 0.995 0.995 0.995 0.995 0.995 0.995 0.995 0.995 0.995 0.995 0.995
          0.995 0.995 0.995 0.995 0.995 0.995 0.995 0.995 0.995 0.995 0.995 0.995
          0.995 0.995 0.995 0.995 0.995 0.995 0.995 0.995 0.995 0.995 0.995 0.995
        </DataArray>
        <DataArray type="Float32" Name="moleFrac_l^CO2" NumberOfComponents="1" format="ascii">
          0.005 0.005 0.005 0.005 0.005 0.005 0.005 0.005 0.005 0.005 0.005 0.005
          0.005 0.005 0.005 0.005 0.005 0.005 0.005 0.005 0.005 0.005 0.005 0.005
          0.005 0.005 0.005 0.005 0.005 0.005 0.005 0.005 0.005 0.005 0.005 0.005
          0.005 0.005 0.005 0.005 0.005 0.005 0.005 0.005 0.005 0.005 0.005 0.005
          0.005 0.005 0.005 0.005 0.005 0.005 0.005 0.005 0.005 0.005 0.005 0.005
          0.005 0.005 0.005 0.005 0.005 0.005 0.005 0.005 0.005 0.005 0.005 0.005
          0.005 0.005 0.005 0.005 0.005 0.005 0.005 0.005 0.005 0.005 0.005 0.005
          0.005 0.005 0.005 0.005 0.005 0.005 0.005 0.005 0.005 0.005 0.005 0.005
        </DataArray>
        <DataArray type="Float32" Name="moleFrac_g^Brine" NumberOfComponents="1" format="ascii">
          0.00327802 0.00327802 0.00327802 0.00327802 0.00327802 0.00327802 0.00327802 0.00327802 0.00327802 0.00327802 0.00327802 0.00327802
          0.00327762 0.00327762 0.00327762 0.00327762 0.00327762 0.00327762 0.00327762 0.00327762 0.00327762 0.00327762 0.00327762 0.00327762
          0.00327721 0.00327721 0.00327721 0.00327721 0.00327721 0.00327721 0.00327721 0.00327721 0.0297685 0.0297685 0.0297685 0.0297685
          0.00327681 0.00327681 0.00327681 0.00327681 0.00327681 0.00327681 0.00327681 0.00327681 0.0297626 0.0297626 0.0297626 0.0297626
          0.00327641 0.00327641 0.00327641 0.00327641 0.00327641 0.00327641 0.00327641 0.00327641 0.0297566 0.0297566 0.0297566 0.0297566
          0.003276 0.003276 0.003276 0.003276 0.003276 0.003276 0.003276 0.003276 0.0297506 0.0297506 0.0297506 0.0297506
          0.0032756 0.0032756 0.0032756 0.0032756 0.0032756 0.0032756 0.0032756 0.0032756 0.0297446 0.0297446 0.0297446 0.0297446
          0.00327519 0.00327519 0.00327519 0.00327519 0.00327519 0.00327519 0.00327519 0.00327519 0.0297387 0.0297387 0.0297387 0.0297387
        </DataArray>
        <DataArray type="Float32" Name="moleFrac_g^CO2" NumberOfComponents="1" format="ascii">
          0.259414 0.259414 0.259414 0.259414 0.259414 0.259414 0.259414 0.259414 0.259414 0.259414 0.259414 0.259414
          0.259433 0.259433 0.259433 0.259433 0.259433 0.259433 0.259433 0.259433 0.259433 0.259433 0.259433 0.259433
          0.259452 0.259452 0.259452 0.259452 0.259452 0.259452 0.259452 0.259452 0.3014 0.3014 0.3014 0.3014
          0.259471 0.259471 0.259471 0.259471 0.259471 0.259471 0.259471 0.259471 0.301525 0.301525 0.301525 0.301525
          0.25949 0.25949 0.25949 0.25949 0.25949 0.25949 0.25949 0.25949 0.301651 0.301651 0.301651 0.301651
          0.259509 0.259509 0.259509 0.259509 0.259509 0.259509 0.259509 0.259509 0.301776 0.301776 0.301776 0.301776
          0.259528 0.259528 0.259528 0.259528 0.259528 0.259528 0.259528 0.259528 0.301901 0.301901 0.301901 0.301901
          0.259546 0.259546 0.259546 0.259546 0.259546 0.259546 0.259546 0.259546 0.302027 0.302027 0.302027 0.302027
        </DataArray>
      </CellData>
      <Points>
        <DataArray type="Float32" Name="Coordinates" NumberOfComponents="3" format="ascii">
          0 0 0 2.5 0 0 0 2.5 0 2.5 2.5 0
          5 0 0 5 2.5 0 7.5 0 0 7.5 2.5 0
          10 0 0 10 2.5 0 12.5 0 0 12.5 2.5 0
          15 0 0 15 2.5 0 17.5 0 0 17.5 2.5 0
          20 0 0 20 2.5 0 22.5 0 0 22.5 2.5 0
          25 0 0 25 2.5 0 27.5 0 0 27.5 2.5 0
          30 0 0 30 2.5 0 0 5 0 2.5 5 0
          5 5 0 7.5 5 0 10 5 0 12.5 5 0
          15 5 0 17.5 5 0 20 5 0 22.5 5 0
          25 5 0 27.5 5 0 30 5 0 0 7.5 0
          2.5 7.5 0 5 7.5 0 7.5 7.5 0 10 7.5 0
          12.5 7.5 0 15 7.5 0 17.5 7.5 0 20 7.5 0
          22.5 7.5 0 25 7.5 0 27.5 7.5 0 30 7.5 0
          0 10 0 2.5 10 0 5 10 0 7.5 10 0
          10 10 0 12.5 10 0 15 10 0 17.5 10 0
          20 10 0 22.5 10 0 25 10 0 27.5 10 0
          30 10 0 0 12.5 0 2.5 12.5 0 5 12.5 0
          7.5 12.5 0 10 12.5 0 12.5 12.5 0 15 12.5 0
          17.5 12.5 0 20 12.5 0 22.5 12.5 0 25 12.5 0
          27.5 12.5 0 30 12.5 0 0 15 0 2.5 15 0
          5 15 0 7.5 15 0 10 15 0 12.5 15 0
          15 15 0 17.5 15 0 20 15 0 22.5 15 0
          25 15 0 27.5 15 0 30 15 0 0 17.5 0
          2.5 17.5 0 5 17.5 0 7.5 17.5 0 10 17.5 0
          12.5 17.5 0 15 17.5 0 17.5 17.5 0 20 17.5 0
          22.5 17.5 0 25 17.5 0 27.5 17.5 0 30 17.5 0
          0 20 0 2.5 20 0 5 20 0 7.5 20 0
          10 20 0 12.5 20 0 15 20 0 17.5 20 0
          20 20 0 22.5 20 0 25 20 0 27.5 20 0
          30 20 0
        </DataArray>
      </Points>
      <Cells>
        <DataArray type="Int32" Name="connectivity" NumberOfComponents="1" format="ascii">
          0 1 3 2 1 4 5 3 4 6 7 5
          6 8 9 7 8 10 11 9 10 12 13 11
          12 14 15 13 14 16 17 15 16 18 19 17
          18 20 21 19 20 22 23 21 22 24 25 23
          2 3 27 26 3 5 28 27 5 7 29 28
          7 9 30 29 9 11 31 30 11 13 32 31
          13 15 33 32 15 17 34 33 17 19 35 34
          19 21 36 35 21 23 37 36 23 25 38 37
          26 27 40 39 27 28 41 40 28 29 42 41
          29 30 43 42 30 31 44 43 31 32 45 44
          32 33 46 45 33 34 47 46 34 35 48 47
          35 36 49 48 36 37 50 49 37 38 51 50
          39 40 53 52 40 41 54 53 41 42 55 54
          42 43 56 55 43 44 57 56 44 45 58 57
          45 46 59 58 46 47 60 59 47 48 61 60
          48 49 62 61 49 50 63 62 50 51 64 63
          52 53 66 65 53 54 67 66 54 55 68 67
          55 56 69 68 56 57 70 69 57 58 71 70
          58 59 72 71 59 60 73 72 60 61 74 73
          61 62 75 74 62 63 76 75 63 64 77 76
          65 66 79 78 66 67 80 79 67 68 81 80
          68 69 82 81 69 70 83 82 70 71 84 83
          71 72 85 84 72 73 86 85 73 74 87 86
          74 75 88 87 75 76 89 88 76 77 90 89
          78 79 92 91 79 80 93 92 80 81 94 93
          81 82 95 94 82 83 96 95 83 84 97 96
          84 85 98 97 85 86 99 98 86 87 100 99
          87 88 101 100 88 89 102 101 89 90 103 102
          91 92 105 104 92 93 106 105 93 94 107 106
          94 95 108 107 95 96 109 108 96 97 110 109
          97 98 111 110 98 99 112 111 99 100 113 112
          100 101 114 113 101 102 115 114 102 103 116 115
        </DataArray>
        <DataArray type="Int32" Name="offsets" NumberOfComponents="1" format="ascii">
          4 8 12 16 20 24 28 32 36 40 44 48
          52 56 60 64 68 72 76 80 84 88 92 96
          100 104 108 112 116 120 124 128 132 136 140 144
          148 152 156 160 164 168 172 176 180 184 188 192
          196 200 204 208 212 216 220 224 228 232 236 240
          244 248 252 256 260 264 268 272 276 280 284 288
          292 296 300 304 308 312 316 320 324 328 332 336
          340 344 348 352 356 360 364 368 372 376 380 384
        </DataArray>
        <DataArray type="UInt8" Name="types" NumberOfComponents="1" format="ascii">
          9 9 9 9 9 9 9 9 9 9 9 9
          9 9 9 9 9 9 9 9 9 9 9 9
          9 9 9 9 9 9 9 9 9 9 9 9
          9 9 9 9 9 9 9 9 9 9 9 9
          9 9 9 9 9 9 9 9 9 9 9 9
          9 9 9 9 9 9 9 9 9 9 9 9
          9 9 9 9 9 9 9 9 9 9 9 9
          9 9 9 9 9 9 9 9 9 9 9 9
        </DataArray>
      </Cells>
    </Piece>
  </UnstructuredGrid>
</VTKFile>
