<?xml version="1.0"?>
<VTKFile type="UnstructuredGrid" version="0.1" byte_order="LittleEndian">
  <UnstructuredGrid>
    <Piece NumberOfCells="384" NumberOfPoints="425">
      <PointData Scalars="pressure_wetting" Vectors="intrinsicPerm[0]">
        <DataArray type="Float32" Name="pressure_wetting" NumberOfComponents="1" format="ascii">
          126957 126876 125276 125215 126798 125157 126726 125103 126662 125057 126611 125020
          126578 124995 126561 124986 126685 124992 126713 124978 126652 124915 126548 124816
          126417 124694 126265 124554 126098 124401 125920 124237 125733 124066 125538 123888
          125338 123704 125133 123516 124923 123323 124710 123126 124494 122926 124275 122722
          124052 122513 123595 123552 123512 123474 123442 123415 123398 123389 123359 123294
          123211 123108 122988 122856 122713 122563 122406 122243 122075 121903 121726 121546
          121362 121173 120980 121913 121888 121863 121840 121820 121803 121790 121784 121732
          121633 121528 121415 121295 121167 121034 120895 120751 120603 120450 120294 120134
          119970 119802 119629 119452 120231 120222 120213 120204 120194 120185 120178 120172
          120105 119978 119853 119730 119608 119485 119359 119232 119101 118967 118830 118689
          118545 118397 118246 118090 117930 118549 118557 118564 118568 118569 118567 118562
          118558 118475 118320 118177 118045 117922 117804 117688 117571 117454 117334 117212
          117087 116960 116829 116694 116556 116413 116868 116894 116917 116935 116946 116950
          116948 116942 116837 116649 116488 116352 116232 116122 116016 115913 115809 115704
          115598 115489 115377 115263 115146 115026 114902 115187 115234 115276 115309 115332
          115341 115337 115325 115180 114944 114774 114643 114534 114435 114343 114254 114165
          114076 113985 113893 113798 113701 113601 113500 113395 113507 113578 113643 113695
          113731 113745 113734 113716 113428 113171 113025 112915 112824 112743 112668 112595
          112523 112450 112375 112299 112221 112141 112059 111976 111891 111829 111930 112022
          112098 112151 112175 112158 112060 111784 111630 111515 111424 111347 111277 111212
          111148 111084 111020 110954 110886 110817 110745 110672 110598 110523 110152 110291
          110417 110523 110600 110642 110638 110573 110461 110348 110255 110175 110103 110038
          109975 109913 109851 109788 109722 109655 109585 109514 109441 109367 109292 108478
          108664 108833 108976 109085 109154 109180 109163 109113 109048 108981 108917 108855
          108796 108737 108678 108618 108557 108492 108425 108356 108284 108211 108136 108061
          106808 107054 107277 107464 107609 107710 107769 107788 107777 107746 107704 107656
          107605 107553 107499 107444 107387 107328 107264 107197 107127 107056 106982 106907
          106830 105143 105470 105758 105995 106178 106310 106397 106445 106462 106454 106431
          106397 106356 106311 106262 106211 106158 106101 106037 105970 105900 105829 105755
          105678 105600 103490 103929 104294 104580 104797 104956 105065 105134 105169 105178
          105169 105145 105112 105072 105028 104981 104931 104874 104811 104744 104674 104603
          104528 104451 104371 101869 102480 102910 103232 103474 103651 103775 103856 103902
          103921 103919 103902 103874 103838 103797 103752 103705 103649 103585 103519 103449
          103377 103302 103224 103143 100586 101175 101628 101964 102215 102398 102527 102612
          102662 102684 102685 102670 102644 102609 102569 102525 102480 102423 102360 102293
          102223 102151 102076 101998 101916
        </DataArray>
        <DataArray type="Float32" Name="pressure_nonwetting" NumberOfComponents="1" format="ascii">
          126957 126876 125276 125215 126798 125157 126726 125103 126662 125057 126611 125020
          126578 124995 126561 124986 126685 124992 126713 124978 126652 124915 126548 124816
          126417 124694 126265 124554 126098 124401 125920 124237 125733 124066 125538 123888
          125338 123704 125133 123516 124923 123323 124710 123126 124494 122926 124275 122722
          124052 122513 123595 123552 123512 123474 123442 123415 123398 123389 123359 123294
          123211 123108 122988 122856 122713 122563 122406 122243 122075 121903 121726 121546
          121362 121173 120980 121913 121888 121863 121840 121820 121803 121790 121784 121732
          121633 121528 121415 121295 121167 121034 120895 120751 120603 120450 120294 120134
          119970 119802 119629 119452 120231 120222 120213 120204 120194 120185 120178 120172
          120105 119978 119853 119730 119608 119485 119359 119232 119101 118967 118830 118689
          118545 118397 118246 118090 117930 118549 118557 118564 118568 118569 118567 118562
          118558 118475 118320 118177 118045 117922 117804 117688 117571 117454 117334 117212
          117087 116960 116829 116694 116556 116413 116868 116894 116917 116935 116946 116950
          116948 116942 116837 116649 116488 116352 116232 116122 116016 115913 115809 115704
          115598 115489 115377 115263 115146 115026 114902 115187 115234 115276 115309 115332
          115341 115337 115325 115180 114944 114774 114643 114534 114435 114343 114254 114165
          114076 113985 113893 113798 113701 113601 113500 113395 113507 113578 113643 113695
          113731 113745 113734 113716 113428 113171 113025 112915 112824 112743 112668 112595
          112523 112450 112375 112299 112221 112141 112059 111976 111891 111829 111930 112022
          112098 112151 112175 112158 112060 111784 111630 111515 111424 111347 111277 111212
          111148 111084 111020 110955 110888 110818 110747 110674 110599 110523 110152 110291
          110417 110523 110600 110642 110638 110573 110461 110348 110255 110175 110103 110038
          109975 109913 109851 109799 109743 109678 109609 109538 109465 109387 109294 108478
          108664 108833 108976 109085 109154 109180 109163 109113 109048 108981 108917 108855
          108796 108737 108678 108622 108615 108566 108502 108433 108362 108289 108209 108087
          106808 107054 107277 107464 107609 107710 107769 107788 107777 107746 107704 107656
          107605 107553 107499 107444 107420 107433 107374 107308 107239 107167 107094 107017
          106908 105143 105470 105758 105995 106178 106310 106397 106445 106462 106454 106431
          106397 106356 106311 106262 106214 106246 106222 106162 106096 106026 105955 105881
          105803 105710 103490 103929 104294 104580 104797 104956 105065 105134 105169 105178
          105169 105145 105112 105072 105028 104997 105046 105009 104948 104882 104812 104740
          104666 104588 104495 101869 102480 102910 103232 103474 103651 103775 103856 103902
          103921 103919 103902 103874 103838 103797 103790 103834 103795 103733 103666 103597
          103525 103450 103372 103278 100586 101175 101628 101964 102215 102398 102527 102612
          102662 102684 102685 102670 102644 102609 102569 102578 102621 102579 102516 102449
          102380 102308 102233 102154 102060
        </DataArray>
        <DataArray type="Float32" Name="density_wetting" NumberOfComponents="1" format="ascii">
          1000 1000 1000 1000 1000 1000 1000 1000 1000 1000 1000 1000
          1000 1000 1000 1000 1000 1000 1000 1000 1000 1000 1000 1000
          1000 1000 1000 1000 1000 1000 1000 1000 1000 1000 1000 1000
          1000 1000 1000 1000 1000 1000 1000 1000 1000 1000 1000 1000
          1000 1000 1000 1000 1000 1000 1000 1000 1000 1000 1000 1000
          1000 1000 1000 1000 1000 1000 1000 1000 1000 1000 1000 1000
          1000 1000 1000 1000 1000 1000 1000 1000 1000 1000 1000 1000
          1000 1000 1000 1000 1000 1000 1000 1000 1000 1000 1000 1000
          1000 1000 1000 1000 1000 1000 1000 1000 1000 1000 1000 1000
          1000 1000 1000 1000 1000 1000 1000 1000 1000 1000 1000 1000
          1000 1000 1000 1000 1000 1000 1000 1000 1000 1000 1000 1000
          1000 1000 1000 1000 1000 1000 1000 1000 1000 1000 1000 1000
          1000 1000 1000 1000 1000 1000 1000 1000 1000 1000 1000 1000
          1000 1000 1000 1000 1000 1000 1000 1000 1000 1000 1000 1000
          1000 1000 1000 1000 1000 1000 1000 1000 1000 1000 1000 1000
          1000 1000 1000 1000 1000 1000 1000 1000 1000 1000 1000 1000
          1000 1000 1000 1000 1000 1000 1000 1000 1000 1000 1000 1000
          1000 1000 1000 1000 1000 1000 1000 1000 1000 1000 1000 1000
          1000 1000 1000 1000 1000 1000 1000 1000 1000 1000 1000 1000
          1000 1000 1000 1000 1000 1000 1000 1000 1000 1000 1000 1000
          1000 1000 1000 1000 1000 1000 1000 1000 1000 1000 1000 1000
          1000 1000 1000 1000 1000 1000 1000 1000 1000 1000 1000 1000
          1000 1000 1000 1000 1000 1000 1000 1000 1000 1000 1000 1000
          1000 1000 1000 1000 1000 1000 1000 1000 1000 1000 1000 1000
          1000 1000 1000 1000 1000 1000 1000 1000 1000 1000 1000 1000
          1000 1000 1000 1000 1000 1000 1000 1000 1000 1000 1000 1000
          1000 1000 1000 1000 1000 1000 1000 1000 1000 1000 1000 1000
          1000 1000 1000 1000 1000 1000 1000 1000 1000 1000 1000 1000
          1000 1000 1000 1000 1000 1000 1000 1000 1000 1000 1000 1000
          1000 1000 1000 1000 1000 1000 1000 1000 1000 1000 1000 1000
          1000 1000 1000 1000 1000 1000 1000 1000 1000 1000 1000 1000
          1000 1000 1000 1000 1000 1000 1000 1000 1000 1000 1000 1000
          1000 1000 1000 1000 1000 1000 1000 1000 1000 1000 1000 1000
          1000 1000 1000 1000 1000 1000 1000 1000 1000 1000 1000 1000
          1000 1000 1000 1000 1000 1000 1000 1000 1000 1000 1000 1000
          1000 1000 1000 1000 1000
        </DataArray>
        <DataArray type="Float32" Name="density_nonwetting" NumberOfComponents="1" format="ascii">
          1460 1460 1460 1460 1460 1460 1460 1460 1460 1460 1460 1460
          1460 1460 1460 1460 1460 1460 1460 1460 1460 1460 1460 1460
          1460 1460 1460 1460 1460 1460 1460 1460 1460 1460 1460 1460
          1460 1460 1460 1460 1460 1460 1460 1460 1460 1460 1460 1460
          1460 1460 1460 1460 1460 1460 1460 1460 1460 1460 1460 1460
          1460 1460 1460 1460 1460 1460 1460 1460 1460 1460 1460 1460
          1460 1460 1460 1460 1460 1460 1460 1460 1460 1460 1460 1460
          1460 1460 1460 1460 1460 1460 1460 1460 1460 1460 1460 1460
          1460 1460 1460 1460 1460 1460 1460 1460 1460 1460 1460 1460
          1460 1460 1460 1460 1460 1460 1460 1460 1460 1460 1460 1460
          1460 1460 1460 1460 1460 1460 1460 1460 1460 1460 1460 1460
          1460 1460 1460 1460 1460 1460 1460 1460 1460 1460 1460 1460
          1460 1460 1460 1460 1460 1460 1460 1460 1460 1460 1460 1460
          1460 1460 1460 1460 1460 1460 1460 1460 1460 1460 1460 1460
          1460 1460 1460 1460 1460 1460 1460 1460 1460 1460 1460 1460
          1460 1460 1460 1460 1460 1460 1460 1460 1460 1460 1460 1460
          1460 1460 1460 1460 1460 1460 1460 1460 1460 1460 1460 1460
          1460 1460 1460 1460 1460 1460 1460 1460 1460 1460 1460 1460
          1460 1460 1460 1460 1460 1460 1460 1460 1460 1460 1460 1460
          1460 1460 1460 1460 1460 1460 1460 1460 1460 1460 1460 1460
          1460 1460 1460 1460 1460 1460 1460 1460 1460 1460 1460 1460
          1460 1460 1460 1460 1460 1460 1460 1460 1460 1460 1460 1460
          1460 1460 1460 1460 1460 1460 1460 1460 1460 1460 1460 1460
          1460 1460 1460 1460 1460 1460 1460 1460 1460 1460 1460 1460
          1460 1460 1460 1460 1460 1460 1460 1460 1460 1460 1460 1460
          1460 1460 1460 1460 1460 1460 1460 1460 1460 1460 1460 1460
          1460 1460 1460 1460 1460 1460 1460 1460 1460 1460 1460 1460
          1460 1460 1460 1460 1460 1460 1460 1460 1460 1460 1460 1460
          1460 1460 1460 1460 1460 1460 1460 1460 1460 1460 1460 1460
          1460 1460 1460 1460 1460 1460 1460 1460 1460 1460 1460 1460
          1460 1460 1460 1460 1460 1460 1460 1460 1460 1460 1460 1460
          1460 1460 1460 1460 1460 1460 1460 1460 1460 1460 1460 1460
          1460 1460 1460 1460 1460 1460 1460 1460 1460 1460 1460 1460
          1460 1460 1460 1460 1460 1460 1460 1460 1460 1460 1460 1460
          1460 1460 1460 1460 1460 1460 1460 1460 1460 1460 1460 1460
          1460 1460 1460 1460 1460
        </DataArray>
        <DataArray type="Float32" Name="saturation_wetting" NumberOfComponents="1" format="ascii">
          1 1 1 1 1 1 1 1 1 1 1 1
          1 1 1 1 1 1 1 1 1 1 1 1
          1 1 1 1 1 1 1 1 1 1 1 1
          1 1 1 1 1 1 1 1 1 1 1 1
          1 1 1 1 1 1 1 1 1 1 1 1
          1 1 1 1 1 1 1 1 1 1 1 1
          1 1 1 1 1 1 1 1 1 1 1 1
          1 1 1 1 1 1 1 1 1 1 1 1
          1 1 1 1 1 1 1 1 1 1 1 1
          1 1 1 1 1 1 1 1 1 1 1 1
          1 1 1 1 1 1 1 1 1 1 1 1
          1 1 1 1 1 1 1 1 1 1 1 1
          1 1 1 1 1 1 1 1 1 1 1 1
          1 1 1 1 1 1 1 1 1 1 1 1
          1 1 1 1 1 1 1 1 1 1 1 1
          1 1 1 1 1 1 1 1 1 1 1 1
          1 1 1 1 1 1 1 1 1 1 1 1
          1 1 1 1 1 1 1 1 1 1 1 1
          1 1 1 1 1 1 1 1 1 1 1 1
          1 1 1 1 1 1 1 1 1 1 1 1
          1 1 0.999984 0.999948 0.999932 0.999928 0.999928 0.999929 0.99995 0.999999 1 1
          1 1 1 1 1 1 1 1 1 1 1 1
          1 1 0.999999 0.999476 0.999041 0.998902 0.99887 0.998866 0.99888 0.999065 0.999903 1
          1 1 1 1 1 1 1 1 1 1 1 1
          1 1 1 0.999856 0.996801 0.995596 0.995268 0.995196 0.995188 0.995219 0.995657 0.998734
          1 1 1 1 1 1 1 1 1 1 1 1
          1 1 1 0.999999 0.998374 0.991155 0.989214 0.988731 0.988633 0.988623 0.988667 0.989333
          0.995195 1 1 1 1 1 1 1 1 1 1 1
          1 1 1 1 0.999888 0.994129 0.982765 0.980397 0.979912 0.979825 0.979818 0.979858
          0.980579 0.989324 1 1 1 1 1 1 1 1 1 1
          1 1 1 1 1 0.999236 0.986912 0.972438 0.970126 0.969737 0.969676 0.969672
          0.969702 0.970367 0.981601 1 1 1 1 1 1 1 1 1
          1 1 1 1 1 1 0.998105 0.977263 0.960591 0.958775 0.958543 0.958514
          0.958512 0.958529 0.959055 0.972841 1 1 1 1 1 1 1 1
          1 1 1 1 1 1 0.999997 0.997202 0.965658 0.947487 0.94662 0.946553
          0.946547 0.946546 0.946552 0.946808 0.963457
        </DataArray>
        <DataArray type="Float32" Name="saturation_nonwetting" NumberOfComponents="1" format="ascii">
          0 0 0 0 0 0 0 0 0 0 0 0
          0 0 0 0 0 0 0 0 0 0 0 0
          0 0 0 0 0 0 0 0 0 0 0 0
          0 0 0 0 0 0 0 0 0 0 0 0
          0 0 0 0 0 0 0 0 0 0 0 0
          0 0 0 0 0 0 0 0 0 0 0 0
          0 0 0 0 0 0 0 0 0 0 0 0
          0 0 0 0 0 0 0 0 0 0 0 0
          0 0 0 0 0 0 0 0 0 0 0 0
          0 0 0 0 0 0 0 0 0 0 0 0
          0 0 0 0 0 0 0 0 0 0 0 0
          0 0 0 0 0 0 0 0 0 0 0 0
          0 0 0 0 0 0 0 0 0 0 0 0
          0 0 0 0 0 0 0 0 0 0 0 0
          0 0 0 0 0 0 0 0 0 0 0 0
          0 0 0 0 0 0 0 0 0 0 0 0
          0 0 0 0 0 0 0 0 0 0 0 0
          0 0 0 0 0 0 0 0 0 0 0 0
          0 5.29106e-10 5.02096e-09 8.49983e-09 9.68729e-09 1.00277e-08 9.78437e-09 5.11514e-09 1.41798e-12 0 0 0
          0 0 0 0 0 0 0 0 0 0 0 0
          0 1.91592e-10 1.62724e-05 5.22328e-05 6.79867e-05 7.19592e-05 7.24299e-05 7.06825e-05 4.97464e-05 6.71839e-07 0 0
          0 0 0 0 0 0 0 0 0 0 0 0
          0 0 1.38095e-06 0.000524423 0.000959283 0.00109821 0.00113038 0.001134 0.00112008 0.000935327 9.71863e-05 0
          0 0 0 0 0 0 0 0 0 0 0 0
          0 0 7.55117e-11 0.00014425 0.00319919 0.00440369 0.0047321 0.00480403 0.00481177 0.00478069 0.00434298 0.00126585
          0 0 0 0 0 0 0 0 0 0 0 0
          0 0 0 8.46194e-07 0.00162617 0.00884466 0.0107862 0.0112689 0.0113668 0.0113766 0.0113327 0.0106671
          0.00480471 0 0 0 0 0 0 0 0 0 0 0
          0 0 0 0 0.000111544 0.00587123 0.0172347 0.0196026 0.0200879 0.0201748 0.0201822 0.0201421
          0.0194211 0.0106763 0 0 0 0 0 0 0 0 0 0
          0 0 0 0 2.22045e-16 0.000764233 0.0130876 0.0275619 0.0298744 0.0302635 0.0303238 0.0303284
          0.0302975 0.0296329 0.0183991 0 0 0 0 0 0 0 0 0
          0 0 0 0 0 1.0408e-09 0.00189482 0.0227365 0.0394093 0.0412252 0.0414567 0.0414862
          0.0414885 0.0414714 0.0409448 0.0271594 0 0 0 0 0 0 0 0
          0 0 0 0 0 0 3.33375e-06 0.00279813 0.0343417 0.0525127 0.0533799 0.053447
          0.0534533 0.0534537 0.0534477 0.0531924 0.0365426
        </DataArray>
        <DataArray type="Float32" Name="relativePerm_wetting" NumberOfComponents="1" format="ascii">
          1 1 1 1 1 1 1 1 1 1 1 1
          1 1 1 1 1 1 1 1 1 1 1 1
          1 1 1 1 1 1 1 1 1 1 1 1
          1 1 1 1 1 1 1 1 1 1 1 1
          1 1 1 1 1 1 1 1 1 1 1 1
          1 1 1 1 1 1 1 1 1 1 1 1
          1 1 1 1 1 1 1 1 1 1 1 1
          1 1 1 1 1 1 1 1 1 1 1 1
          1 1 1 1 1 1 1 1 1 1 1 1
          1 1 1 1 1 1 1 1 1 1 1 1
          1 1 1 1 1 1 1 1 1 1 1 1
          1 1 1 1 1 1 1 1 1 1 1 1
          1 1 1 1 1 1 1 1 1 1 1 1
          1 1 1 1 1 1 1 1 1 1 1 1
          1 1 1 1 1 1 1 1 1 1 1 1
          1 1 1 1 1 1 1 1 1 1 1 1
          1 1 1 1 1 1 1 1 1 1 1 1
          1 1 1 1 1 1 1 1 1 1 1 1
          1 1 1 1 1 1 1 1 1 1 1 1
          1 1 1 1 1 1 1 1 1 1 1 1
          1 1 0.999564 0.998903 0.998648 0.998586 0.998578 0.998606 0.998944 0.999965 1 1
          1 1 1 1 1 1 1 1 1 1 1 1
          1 1 0.999938 0.993161 0.98895 0.987697 0.987412 0.98738 0.987503 0.98917 0.998205 1
          1 1 1 1 1 1 1 1 1 1 1 1
          1 1 1 0.997545 0.971252 0.962971 0.960802 0.960332 0.960281 0.960484 0.963376 0.986228
          1 1 1 1 1 1 1 1 1 1 1 1
          1 1 1 0.999958 0.983196 0.935794 0.924967 0.922348 0.92182 0.921768 0.922004 0.925618
          0.960327 1 1 1 1 1 1 1 1 1 1 1
          1 1 1 1 0.997998 0.953515 0.89183 0.880481 0.878199 0.877792 0.877757 0.877945
          0.881337 0.925567 1 1 1 1 1 1 1 1 1 1
          1 1 1 1 1 0.990776 0.912704 0.844665 0.834818 0.833183 0.83293 0.832911
          0.83304 0.835836 0.886202 1 1 1 1 1 1 1 1 1
          1 1 1 1 1 1 0.981027 0.865987 0.796324 0.789329 0.788445 0.788332
          0.788324 0.788389 0.790403 0.846402 1 1 1 1 1 1 1 1
          1 1 1 1 1 1 0.999876 0.974149 0.816389 0.747873 0.744818 0.744583
          0.744561 0.744559 0.74458 0.745477 0.807572
        </DataArray>
        <DataArray type="Float32" Name="relativePerm_nonwetting" NumberOfComponents="1" format="ascii">
          0 0 0 0 0 0 0 0 0 0 0 0
          0 0 0 0 0 0 0 0 0 0 0 0
          0 0 0 0 0 0 0 0 0 0 0 0
          0 0 0 0 0 0 0 0 0 0 0 0
          0 0 0 0 0 0 0 0 0 0 0 0
          0 0 0 0 0 0 0 0 0 0 0 0
          0 0 0 0 0 0 0 0 0 0 0 0
          0 0 0 0 0 0 0 0 0 0 0 0
          0 0 0 0 0 0 0 0 0 0 0 0
          0 0 0 0 0 0 0 0 0 0 0 0
          0 0 0 0 0 0 0 0 0 0 0 0
          0 0 0 0 0 0 0 0 0 0 0 0
          0 0 0 0 0 0 0 0 0 0 0 0
          0 0 0 0 0 0 0 0 0 0 0 0
          0 0 0 0 0 0 0 0 0 0 0 0
          0 0 0 0 0 0 0 0 0 0 0 0
          0 0 0 0 0 0 0 0 0 0 0 0
          0 0 0 0 0 0 0 0 0 0 0 0
          0 1.52881e-19 1.57344e-17 4.6523e-17 6.09009e-17 6.53904e-17 6.21644e-17 1.63482e-17 7.72573e-25 0 0 0
          0 0 0 0 0 0 0 0 0 0 0 0
          0 4.64285e-19 1.17619e-09 1.08833e-08 1.79956e-08 2.00547e-08 2.03057e-08 1.93813e-08 9.91634e-09 2.68985e-12 0 0
          0 0 0 0 0 0 0 0 0 0 0 0
          0 0 1.06341e-11 8.86816e-07 2.80634e-06 3.63237e-06 3.83804e-06 3.86153e-06 3.77161e-06 2.67417e-06 3.5581e-08 0
          0 0 0 0 0 0 0 0 0 0 0 0
          0 0 7.85853e-20 7.55824e-08 2.79177e-05 5.13478e-05 5.88957e-05 6.06145e-05 6.08008e-05 6.00541e-05 5.00064e-05 4.76297e-06
          0 0 0 0 0 0 0 0 0 0 0 0
          0 0 0 4.17733e-12 7.68031e-06 0.00019404 0.000283224 0.000307865 0.000312979 0.00031349 0.00031119 0.000277294
          6.06308e-05 0 0 0 0 0 0 0 0 0 0 0
          0 0 0 0 4.62788e-08 8.8856e-05 0.000691514 0.000883554 0.000925653 0.000933288 0.000933943 0.000930412
          0.000868051 0.000277753 0 0 0 0 0 0 0 0 0 0
          0 0 0 0 2.63507e-30 1.81895e-06 0.000409399 0.00168965 0.00196934 0.00201838 0.00202603 0.00202661
          0.0020227 0.00193918 0.000783169 0 0 0 0 0 0 0 0 0
          0 0 0 0 0 1.17219e-17 1.0281e-05 0.00117168 0.00333332 0.00363096 0.00366976 0.00367472
          0.00367509 0.00367222 0.00358421 0.00164303 0 0 0 0 0 0 0 0
          0 0 0 0 0 0 5.71377e-11 2.16241e-05 0.00256649 0.00574646 0.00592767 0.0059418
          0.00594313 0.00594323 0.00594196 0.00588826 0.00288794
        </DataArray>
        <DataArray type="Float32" Name="porosity" NumberOfComponents="1" format="ascii">
          0.4 0.4 0.4 0.4 0.4 0.4 0.4 0.4 0.4 0.4 0.4 0.4
          0.4 0.4 0.4 0.4 0.4 0.4 0.4 0.4 0.4 0.4 0.4 0.4
          0.4 0.4 0.4 0.4 0.4 0.4 0.4 0.4 0.4 0.4 0.4 0.4
          0.4 0.4 0.4 0.4 0.4 0.4 0.4 0.4 0.4 0.4 0.4 0.4
          0.4 0.4 0.4 0.4 0.4 0.4 0.4 0.4 0.4 0.4 0.4 0.4
          0.4 0.4 0.4 0.4 0.4 0.4 0.4 0.4 0.4 0.4 0.4 0.4
          0.4 0.4 0.4 0.4 0.4 0.4 0.4 0.4 0.4 0.4 0.4 0.4
          0.4 0.4 0.4 0.4 0.4 0.4 0.4 0.4 0.4 0.4 0.4 0.4
          0.4 0.4 0.4 0.4 0.4 0.4 0.4 0.4 0.4 0.4 0.4 0.4
          0.4 0.4 0.4 0.4 0.4 0.4 0.4 0.4 0.4 0.4 0.4 0.4
          0.4 0.4 0.4 0.4 0.4 0.4 0.4 0.4 0.4 0.4 0.4 0.4
          0.4 0.4 0.4 0.4 0.4 0.4 0.4 0.4 0.4 0.4 0.4 0.4
          0.4 0.4 0.4 0.4 0.4 0.4 0.4 0.4 0.4 0.4 0.4 0.4
          0.4 0.4 0.4 0.4 0.4 0.4 0.4 0.4 0.4 0.4 0.4 0.4
          0.4 0.4 0.4 0.4 0.4 0.4 0.4 0.4 0.4 0.4 0.4 0.4
          0.4 0.4 0.4 0.4 0.4 0.4 0.4 0.4 0.4 0.4 0.4 0.4
          0.4 0.4 0.4 0.4 0.4 0.4 0.4 0.4 0.4 0.4 0.4 0.4
          0.4 0.4 0.4 0.4 0.4 0.4 0.4 0.4 0.4 0.4 0.4 0.4
          0.4 0.4 0.4 0.4 0.4 0.4 0.4 0.4 0.4 0.4 0.4 0.4
          0.4 0.4 0.4 0.4 0.4 0.4 0.4 0.4 0.4 0.4 0.4 0.4
          0.4 0.4 0.4 0.4 0.4 0.4 0.4 0.4 0.4 0.4 0.4 0.4
          0.4 0.4 0.4 0.4 0.4 0.4 0.4 0.4 0.4 0.4 0.4 0.4
          0.4 0.4 0.4 0.4 0.4 0.4 0.4 0.4 0.4 0.4 0.4 0.4
          0.4 0.4 0.4 0.4 0.4 0.4 0.4 0.4 0.4 0.4 0.4 0.4
          0.4 0.4 0.4 0.4 0.4 0.4 0.4 0.4 0.4 0.4 0.4 0.4
          0.4 0.4 0.4 0.4 0.4 0.4 0.4 0.4 0.4 0.4 0.4 0.4
          0.4 0.4 0.4 0.4 0.4 0.4 0.4 0.4 0.4 0.4 0.4 0.4
          0.4 0.4 0.4 0.4 0.4 0.4 0.4 0.4 0.4 0.4 0.4 0.4
          0.4 0.4 0.4 0.4 0.4 0.4 0.4 0.4 0.4 0.4 0.4 0.4
          0.4 0.4 0.4 0.4 0.4 0.4 0.4 0.4 0.4 0.4 0.4 0.4
          0.4 0.4 0.4 0.4 0.4 0.4 0.4 0.4 0.4 0.4 0.4 0.4
          0.4 0.4 0.4 0.4 0.4 0.4 0.4 0.4 0.4 0.4 0.4 0.4
          0.4 0.4 0.4 0.4 0.4 0.4 0.4 0.4 0.4 0.4 0.4 0.4
          0.4 0.4 0.4 0.4 0.4 0.4 0.4 0.4 0.4 0.4 0.4 0.4
          0.4 0.4 0.4 0.4 0.4 0.4 0.4 0.4 0.4 0.4 0.4 0.4
          0.4 0.4 0.4 0.4 0.4
        </DataArray>
        <DataArray type="Float32" Name="intrinsicPerm[0]" NumberOfComponents="3" format="ascii">
          4.6e-10 0 0 4.6e-10 0 0 4.6e-10 0 0 4.6e-10 0 0
          4.6e-10 0 0 4.6e-10 0 0 4.6e-10 0 0 4.6e-10 0 0
          4.6e-10 0 0 4.6e-10 0 0 4.6e-10 0 0 4.6e-10 0 0
          4.6e-10 0 0 4.6e-10 0 0 4.6e-10 0 0 4.6e-10 0 0
          9.05e-12 0 0 9.05e-12 0 0 9.05e-12 0 0 9.05e-12 0 0
          9.05e-12 0 0 9.05e-12 0 0 9.05e-12 0 0 9.05e-12 0 0
          9.05e-12 0 0 9.05e-12 0 0 9.05e-12 0 0 9.05e-12 0 0
          9.05e-12 0 0 9.05e-12 0 0 9.05e-12 0 0 9.05e-12 0 0
          9.05e-12 0 0 9.05e-12 0 0 9.05e-12 0 0 9.05e-12 0 0
          9.05e-12 0 0 9.05e-12 0 0 9.05e-12 0 0 9.05e-12 0 0
          9.05e-12 0 0 9.05e-12 0 0 9.05e-12 0 0 9.05e-12 0 0
          9.05e-12 0 0 9.05e-12 0 0 9.05e-12 0 0 9.05e-12 0 0
          9.05e-12 0 0 9.05e-12 0 0 4.6e-10 0 0 4.6e-10 0 0
          4.6e-10 0 0 4.6e-10 0 0 4.6e-10 0 0 4.6e-10 0 0
          4.6e-10 0 0 4.6e-10 0 0 9.05e-12 0 0 9.05e-12 0 0
          9.05e-12 0 0 9.05e-12 0 0 9.05e-12 0 0 9.05e-12 0 0
          9.05e-12 0 0 9.05e-12 0 0 9.05e-12 0 0 9.05e-12 0 0
          9.05e-12 0 0 9.05e-12 0 0 9.05e-12 0 0 9.05e-12 0 0
          9.05e-12 0 0 9.05e-12 0 0 9.05e-12 0 0 4.6e-10 0 0
          4.6e-10 0 0 4.6e-10 0 0 4.6e-10 0 0 4.6e-10 0 0
          4.6e-10 0 0 4.6e-10 0 0 4.6e-10 0 0 9.05e-12 0 0
          9.05e-12 0 0 9.05e-12 0 0 9.05e-12 0 0 9.05e-12 0 0
          9.05e-12 0 0 9.05e-12 0 0 9.05e-12 0 0 9.05e-12 0 0
          9.05e-12 0 0 9.05e-12 0 0 9.05e-12 0 0 9.05e-12 0 0
          9.05e-12 0 0 9.05e-12 0 0 9.05e-12 0 0 9.05e-12 0 0
          4.6e-10 0 0 4.6e-10 0 0 4.6e-10 0 0 4.6e-10 0 0
          4.6e-10 0 0 4.6e-10 0 0 4.6e-10 0 0 4.6e-10 0 0
          9.05e-12 0 0 9.05e-12 0 0 9.05e-12 0 0 9.05e-12 0 0
          9.05e-12 0 0 9.05e-12 0 0 9.05e-12 0 0 9.05e-12 0 0
          9.05e-12 0 0 9.05e-12 0 0 9.05e-12 0 0 9.05e-12 0 0
          9.05e-12 0 0 9.05e-12 0 0 9.05e-12 0 0 9.05e-12 0 0
          9.05e-12 0 0 4.6e-10 0 0 4.6e-10 0 0 4.6e-10 0 0
          4.6e-10 0 0 4.6e-10 0 0 4.6e-10 0 0 4.6e-10 0 0
          4.6e-10 0 0 9.05e-12 0 0 9.05e-12 0 0 9.05e-12 0 0
          9.05e-12 0 0 9.05e-12 0 0 9.05e-12 0 0 9.05e-12 0 0
          9.05e-12 0 0 9.05e-12 0 0 9.05e-12 0 0 9.05e-12 0 0
          9.05e-12 0 0 9.05e-12 0 0 9.05e-12 0 0 9.05e-12 0 0
          9.05e-12 0 0 9.05e-12 0 0 4.6e-10 0 0 4.6e-10 0 0
          4.6e-10 0 0 4.6e-10 0 0 4.6e-10 0 0 4.6e-10 0 0
          4.6e-10 0 0 4.6e-10 0 0 9.05e-12 0 0 9.05e-12 0 0
          9.05e-12 0 0 9.05e-12 0 0 9.05e-12 0 0 9.05e-12 0 0
          9.05e-12 0 0 9.05e-12 0 0 9.05e-12 0 0 9.05e-12 0 0
          9.05e-12 0 0 9.05e-12 0 0 9.05e-12 0 0 9.05e-12 0 0
          9.05e-12 0 0 9.05e-12 0 0 9.05e-12 0 0 4.6e-10 0 0
          4.6e-10 0 0 4.6e-10 0 0 4.6e-10 0 0 4.6e-10 0 0
          4.6e-10 0 0 4.6e-10 0 0 4.6e-10 0 0 9.05e-12 0 0
          9.05e-12 0 0 9.05e-12 0 0 9.05e-12 0 0 9.05e-12 0 0
          9.05e-12 0 0 9.05e-12 0 0 9.05e-12 0 0 9.05e-12 0 0
          9.05e-12 0 0 9.05e-12 0 0 9.05e-12 0 0 9.05e-12 0 0
          9.05e-12 0 0 9.05e-12 0 0 9.05e-12 0 0 9.05e-12 0 0
          4.6e-10 0 0 4.6e-10 0 0 4.6e-10 0 0 4.6e-10 0 0
          4.6e-10 0 0 4.6e-10 0 0 4.6e-10 0 0 4.6e-10 0 0
          9.05e-12 0 0 9.05e-12 0 0 9.05e-12 0 0 9.05e-12 0 0
          9.05e-12 0 0 9.05e-12 0 0 9.05e-12 0 0 9.05e-12 0 0
          9.05e-12 0 0 9.05e-12 0 0 9.05e-12 0 0 9.05e-12 0 0
          9.05e-12 0 0 9.05e-12 0 0 9.05e-12 0 0 9.05e-12 0 0
          9.05e-12 0 0 4.6e-10 0 0 4.6e-10 0 0 4.6e-10 0 0
          4.6e-10 0 0 4.6e-10 0 0 4.6e-10 0 0 4.6e-10 0 0
          4.6e-10 0 0 4.6e-10 0 0 4.6e-10 0 0 4.6e-10 0 0
          4.6e-10 0 0 4.6e-10 0 0 4.6e-10 0 0 4.6e-10 0 0
          4.6e-10 0 0 4.6e-10 0 0 4.6e-10 0 0 4.6e-10 0 0
          4.6e-10 0 0 4.6e-10 0 0 4.6e-10 0 0 4.6e-10 0 0
          4.6e-10 0 0 4.6e-10 0 0 4.6e-10 0 0 4.6e-10 0 0
          4.6e-10 0 0 4.6e-10 0 0 4.6e-10 0 0 4.6e-10 0 0
          4.6e-10 0 0 4.6e-10 0 0 4.6e-10 0 0 4.6e-10 0 0
          4.6e-10 0 0 4.6e-10 0 0 4.6e-10 0 0 4.6e-10 0 0
          4.6e-10 0 0 4.6e-10 0 0 4.6e-10 0 0 4.6e-10 0 0
          4.6e-10 0 0 4.6e-10 0 0 4.6e-10 0 0 4.6e-10 0 0
          4.6e-10 0 0 4.6e-10 0 0 4.6e-10 0 0 4.6e-10 0 0
          4.6e-10 0 0 4.6e-10 0 0 4.6e-10 0 0 4.6e-10 0 0
          4.6e-10 0 0 4.6e-10 0 0 4.6e-10 0 0 4.6e-10 0 0
          4.6e-10 0 0 4.6e-10 0 0 4.6e-10 0 0 4.6e-10 0 0
          4.6e-10 0 0 4.6e-10 0 0 4.6e-10 0 0 4.6e-10 0 0
          4.6e-10 0 0 4.6e-10 0 0 4.6e-10 0 0 4.6e-10 0 0
          4.6e-10 0 0 4.6e-10 0 0 4.6e-10 0 0 4.6e-10 0 0
          4.6e-10 0 0 4.6e-10 0 0 4.6e-10 0 0 4.6e-10 0 0
          4.6e-10 0 0 4.6e-10 0 0 4.6e-10 0 0 4.6e-10 0 0
          4.6e-10 0 0 4.6e-10 0 0 4.6e-10 0 0 4.6e-10 0 0
          4.6e-10 0 0 4.6e-10 0 0 4.6e-10 0 0 4.6e-10 0 0
          4.6e-10 0 0 4.6e-10 0 0 4.6e-10 0 0 4.6e-10 0 0
          4.6e-10 0 0 4.6e-10 0 0 4.6e-10 0 0 4.6e-10 0 0
          4.6e-10 0 0 4.6e-10 0 0 4.6e-10 0 0 4.6e-10 0 0
          4.6e-10 0 0 4.6e-10 0 0 4.6e-10 0 0 4.6e-10 0 0
          4.6e-10 0 0 4.6e-10 0 0 4.6e-10 0 0 4.6e-10 0 0
          4.6e-10 0 0 4.6e-10 0 0 4.6e-10 0 0 4.6e-10 0 0
          4.6e-10 0 0 4.6e-10 0 0 4.6e-10 0 0 4.6e-10 0 0
          4.6e-10 0 0 4.6e-10 0 0 4.6e-10 0 0 4.6e-10 0 0
          4.6e-10 0 0 4.6e-10 0 0 4.6e-10 0 0 4.6e-10 0 0
          4.6e-10 0 0 4.6e-10 0 0 4.6e-10 0 0 4.6e-10 0 0
          4.6e-10 0 0 4.6e-10 0 0 4.6e-10 0 0 4.6e-10 0 0
          4.6e-10 0 0 4.6e-10 0 0 4.6e-10 0 0 4.6e-10 0 0
          4.6e-10 0 0 4.6e-10 0 0 4.6e-10 0 0 4.6e-10 0 0
          4.6e-10 0 0 4.6e-10 0 0 4.6e-10 0 0 4.6e-10 0 0
          4.6e-10 0 0 4.6e-10 0 0 4.6e-10 0 0 4.6e-10 0 0
          4.6e-10 0 0 4.6e-10 0 0 4.6e-10 0 0 4.6e-10 0 0
          4.6e-10 0 0 4.6e-10 0 0 4.6e-10 0 0 4.6e-10 0 0
          4.6e-10 0 0 4.6e-10 0 0 4.6e-10 0 0 4.6e-10 0 0
          4.6e-10 0 0 4.6e-10 0 0 4.6e-10 0 0 4.6e-10 0 0
          4.6e-10 0 0 4.6e-10 0 0 4.6e-10 0 0 4.6e-10 0 0
          4.6e-10 0 0 4.6e-10 0 0 4.6e-10 0 0 4.6e-10 0 0
          4.6e-10 0 0 4.6e-10 0 0 4.6e-10 0 0 4.6e-10 0 0
          4.6e-10 0 0 4.6e-10 0 0 4.6e-10 0 0 4.6e-10 0 0
          4.6e-10 0 0 4.6e-10 0 0 4.6e-10 0 0 4.6e-10 0 0
          4.6e-10 0 0 4.6e-10 0 0 4.6e-10 0 0 4.6e-10 0 0
          4.6e-10 0 0 4.6e-10 0 0 4.6e-10 0 0 4.6e-10 0 0
          4.6e-10 0 0 4.6e-10 0 0 4.6e-10 0 0 4.6e-10 0 0
          4.6e-10 0 0
        </DataArray>
        <DataArray type="Float32" Name="intrinsicPerm[1]" NumberOfComponents="3" format="ascii">
          0 4.6e-10 0 0 4.6e-10 0 0 4.6e-10 0 0 4.6e-10 0
          0 4.6e-10 0 0 4.6e-10 0 0 4.6e-10 0 0 4.6e-10 0
          0 4.6e-10 0 0 4.6e-10 0 0 4.6e-10 0 0 4.6e-10 0
          0 4.6e-10 0 0 4.6e-10 0 0 4.6e-10 0 0 4.6e-10 0
          0 9.05e-12 0 0 9.05e-12 0 0 9.05e-12 0 0 9.05e-12 0
          0 9.05e-12 0 0 9.05e-12 0 0 9.05e-12 0 0 9.05e-12 0
          0 9.05e-12 0 0 9.05e-12 0 0 9.05e-12 0 0 9.05e-12 0
          0 9.05e-12 0 0 9.05e-12 0 0 9.05e-12 0 0 9.05e-12 0
          0 9.05e-12 0 0 9.05e-12 0 0 9.05e-12 0 0 9.05e-12 0
          0 9.05e-12 0 0 9.05e-12 0 0 9.05e-12 0 0 9.05e-12 0
          0 9.05e-12 0 0 9.05e-12 0 0 9.05e-12 0 0 9.05e-12 0
          0 9.05e-12 0 0 9.05e-12 0 0 9.05e-12 0 0 9.05e-12 0
          0 9.05e-12 0 0 9.05e-12 0 0 4.6e-10 0 0 4.6e-10 0
          0 4.6e-10 0 0 4.6e-10 0 0 4.6e-10 0 0 4.6e-10 0