<?xml version="1.0"?>
<VTKFile type="UnstructuredGrid" version="0.1" byte_order="LittleEndian">
  <UnstructuredGrid>
    <Piece NumberOfCells="384" NumberOfPoints="425">
      <PointData Scalars="pressure_wetting" Vectors="intrinsicPerm[0]">
        <DataArray type="Float32" Name="pressure_wetting" NumberOfComponents="1" format="ascii">
          126936 126853 125260 125198 126774 125139 126701 125085 126637 125038 126585 125000
          126551 124975 126533 124965 126653 124970 126676 124952 126614 124887 126510 124788
          126378 124665 126227 124526 126062 124374 125885 124211 125699 124041 125507 123865
          125308 123683 125105 123496 124898 123305 124688 123110 124474 122912 124257 122710
          124036 122504 123584 123541 123500 123462 123429 123402 123384 123376 123344 123277
          123193 123089 122969 122837 122695 122546 122389 122228 122061 121890 121716 121537
          121354 121167 120976 121906 121881 121857 121834 121813 121796 121784 121777 121725
          121624 121518 121405 121285 121158 121024 120886 120743 120596 120444 120289 120130
          119967 119800 119629 119453 120229 120221 120212 120203 120194 120185 120177 120172
          120105 119977 119852 119730 119607 119484 119359 119232 119101 118968 118831 118691
          118548 118401 118251 118096 117937 118552 118561 118569 118573 118575 118573 118569
          118564 118482 118327 118184 118053 117930 117812 117696 117580 117462 117343 117221
          117097 116970 116839 116705 116568 116426 116876 116904 116928 116947 116959 116963
          116961 116955 116851 116664 116504 116369 116249 116139 116033 115929 115826 115721
          115614 115506 115394 115280 115164 115044 114920 115200 115250 115293 115328 115351
          115360 115357 115346 115201 114968 114799 114669 114559 114461 114369 114279 114190
          114100 114009 113917 113822 113725 113625 113523 113419 113527 113601 113667 113721
          113757 113771 113761 113742 113459 113205 113059 112950 112859 112778 112702 112628
          112555 112482 112407 112330 112251 112171 112089 112005 111920 111857 111961 112054
          112131 112184 112208 112191 112095 111822 111669 111555 111464 111386 111316 111250
          111185 111121 111056 110989 110921 110851 110779 110705 110631 110555 110190 110331
          110458 110564 110641 110682 110678 110613 110502 110389 110295 110215 110143 110077
          110013 109950 109887 109823 109757 109689 109619 109547 109474 109400 109324 108528
          108715 108885 109026 109133 109200 109225 109206 109156 109090 109023 108958 108895
          108835 108775 108716 108655 108593 108528 108460 108390 108318 108244 108169 108093
          106873 107119 107340 107523 107664 107762 107818 107835 107823 107790 107747 107698
          107646 107593 107538 107482 107424 107364 107299 107232 107162 107090 107016 106940
          106863 105228 105551 105833 106063 106240 106367 106450 106495 106509 106500 106475
          106440 106398 106351 106302 106250 106196 106137 106073 106005 105935 105863 105788
          105711 105633 103603 104030 104381 104656 104865 105017 105122 105186 105218 105225
          105213 105188 105154 105113 105068 105019 104968 104911 104847 104779 104709 104637
          104562 104484 104404 102025 102597 103006 103314 103546 103715 103833 103910 103952
          103969 103965 103946 103916 103879 103837 103791 103743 103686 103622 103554 103484
          103411 103336 103257 103176 100736 101297 101727 102048 102288 102463 102586 102666
          102713 102732 102731 102714 102686 102650 102609 102564 102517 102460 102396 102329
          102258 102186 102110 102031 101949
        </DataArray>
        <DataArray type="Float32" Name="pressure_nonwetting" NumberOfComponents="1" format="ascii">
          126936 126853 125260 125198 126774 125139 126701 125085 126637 125038 126585 125000
          126551 124975 126533 124965 126653 124970 126676 124952 126614 124887 126510 124788
          126378 124665 126227 124526 126062 124374 125885 124211 125699 124041 125507 123865
          125308 123683 125105 123496 124898 123305 124688 123110 124474 122912 124257 122710
          124036 122504 123584 123541 123500 123462 123429 123402 123384 123376 123344 123277
          123193 123089 122969 122837 122695 122546 122389 122228 122061 121890 121716 121537
          121354 121167 120976 121906 121881 121857 121834 121813 121796 121784 121777 121725
          121624 121518 121405 121285 121158 121024 120886 120743 120596 120444 120289 120130
          119967 119800 119629 119453 120229 120221 120212 120203 120194 120185 120177 120172
          120105 119977 119852 119730 119607 119484 119359 119232 119101 118968 118831 118691
          118548 118401 118251 118096 117937 118552 118561 118569 118573 118575 118573 118569
          118564 118482 118327 118184 118053 117930 117812 117696 117580 117462 117343 117221
          117097 116970 116839 116705 116568 116426 116876 116904 116928 116947 116959 116963
          116961 116955 116851 116664 116504 116369 116249 116139 116033 115929 115826 115721
          115614 115506 115394 115280 115164 115044 114920 115200 115250 115293 115328 115351
          115360 115357 115346 115201 114968 114799 114669 114559 114461 114369 114279 114190
          114100 114009 113917 113822 113725 113625 113523 113419 113527 113601 113667 113721
          113757 113771 113761 113742 113459 113205 113059 112950 112859 112778 112702 112628
          112555 112482 112407 112330 112251 112171 112089 112005 111920 111857 111961 112054
          112131 112184 112208 112191 112095 111822 111669 111555 111464 111386 111316 111250
          111185 111121 111056 110990 110921 110851 110779 110706 110631 110555 110190 110331
          110458 110564 110641 110682 110678 110613 110502 110389 110295 110215 110143 110077
          110013 109950 109887 109830 109770 109704 109634 109562 109489 109411 109325 108528
          108715 108885 109026 109133 109200 109225 109206 109156 109090 109023 108958 108895
          108835 108775 108716 108657 108640 108589 108525 108456 108384 108310 108230 108111
          106873 107119 107340 107523 107664 107762 107818 107835 107823 107790 107747 107698
          107646 107593 107538 107482 107450 107465 107406 107339 107270 107198 107123 107046
          106931 105228 105551 105833 106063 106240 106367 106450 106495 106509 106500 106475
          106440 106398 106351 106302 106251 106278 106257 106196 106129 106059 105987 105912
          105834 105740 103603 104030 104381 104656 104865 105017 105122 105186 105218 105225
          105213 105188 105154 105113 105068 105033 105082 105045 104983 104916 104846 104773
          104698 104620 104526 102025 102597 103006 103314 103546 103715 103833 103910 103952
          103969 103965 103946 103916 103879 103837 103826 103871 103831 103768 103701 103631
          103558 103483 103404 103309 100736 101297 101727 102048 102288 102463 102586 102666
          102713 102732 102731 102714 102686 102650 102609 102615 102659 102616 102552 102485
          102415 102342 102266 102187 102092
        </DataArray>
        <DataArray type="Float32" Name="density_wetting" NumberOfComponents="1" format="ascii">
          1000 1000 1000 1000 1000 1000 1000 1000 1000 1000 1000 1000
          1000 1000 1000 1000 1000 1000 1000 1000 1000 1000 1000 1000
          1000 1000 1000 1000 1000 1000 1000 1000 1000 1000 1000 1000
          1000 1000 1000 1000 1000 1000 1000 1000 1000 1000 1000 1000
          1000 1000 1000 1000 1000 1000 1000 1000 1000 1000 1000 1000
          1000 1000 1000 1000 1000 1000 1000 1000 1000 1000 1000 1000
          1000 1000 1000 1000 1000 1000 1000 1000 1000 1000 1000 1000
          1000 1000 1000 1000 1000 1000 1000 1000 1000 1000 1000 1000
          1000 1000 1000 1000 1000 1000 1000 1000 1000 1000 1000 1000
          1000 1000 1000 1000 1000 1000 1000 1000 1000 1000 1000 1000
          1000 1000 1000 1000 1000 1000 1000 1000 1000 1000 1000 1000
          1000 1000 1000 1000 1000 1000 1000 1000 1000 1000 1000 1000
          1000 1000 1000 1000 1000 1000 1000 1000 1000 1000 1000 1000
          1000 1000 1000 1000 1000 1000 1000 1000 1000 1000 1000 1000
          1000 1000 1000 1000 1000 1000 1000 1000 1000 1000 1000 1000
          1000 1000 1000 1000 1000 1000 1000 1000 1000 1000 1000 1000
          1000 1000 1000 1000 1000 1000 1000 1000 1000 1000 1000 1000
          1000 1000 1000 1000 1000 1000 1000 1000 1000 1000 1000 1000
          1000 1000 1000 1000 1000 1000 1000 1000 1000 1000 1000 1000
          1000 1000 1000 1000 1000 1000 1000 1000 1000 1000 1000 1000
          1000 1000 1000 1000 1000 1000 1000 1000 1000 1000 1000 1000
          1000 1000 1000 1000 1000 1000 1000 1000 1000 1000 1000 1000
          1000 1000 1000 1000 1000 1000 1000 1000 1000 1000 1000 1000
          1000 1000 1000 1000 1000 1000 1000 1000 1000 1000 1000 1000
          1000 1000 1000 1000 1000 1000 1000 1000 1000 1000 1000 1000
          1000 1000 1000 1000 1000 1000 1000 1000 1000 1000 1000 1000
          1000 1000 1000 1000 1000 1000 1000 1000 1000 1000 1000 1000
          1000 1000 1000 1000 1000 1000 1000 1000 1000 1000 1000 1000
          1000 1000 1000 1000 1000 1000 1000 1000 1000 1000 1000 1000
          1000 1000 1000 1000 1000 1000 1000 1000 1000 1000 1000 1000
          1000 1000 1000 1000 1000 1000 1000 1000 1000 1000 1000 1000
          1000 1000 1000 1000 1000 1000 1000 1000 1000 1000 1000 1000
          1000 1000 1000 1000 1000 1000 1000 1000 1000 1000 1000 1000
          1000 1000 1000 1000 1000 1000 1000 1000 1000 1000 1000 1000
          1000 1000 1000 1000 1000 1000 1000 1000 1000 1000 1000 1000
          1000 1000 1000 1000 1000
        </DataArray>
        <DataArray type="Float32" Name="density_nonwetting" NumberOfComponents="1" format="ascii">
          1460 1460 1460 1460 1460 1460 1460 1460 1460 1460 1460 1460
          1460 1460 1460 1460 1460 1460 1460 1460 1460 1460 1460 1460
          1460 1460 1460 1460 1460 1460 1460 1460 1460 1460 1460 1460
          1460 1460 1460 1460 1460 1460 1460 1460 1460 1460 1460 1460
          1460 1460 1460 1460 1460 1460 1460 1460 1460 1460 1460 1460
          1460 1460 1460 1460 1460 1460 1460 1460 1460 1460 1460 1460
          1460 1460 1460 1460 1460 1460 1460 1460 1460 1460 1460 1460
          1460 1460 1460 1460 1460 1460 1460 1460 1460 1460 1460 1460
          1460 1460 1460 1460 1460 1460 1460 1460 1460 1460 1460 1460
          1460 1460 1460 1460 1460 1460 1460 1460 1460 1460 1460 1460
          1460 1460 1460 1460 1460 1460 1460 1460 1460 1460 1460 1460
          1460 1460 1460 1460 1460 1460 1460 1460 1460 1460 1460 1460
          1460 1460 1460 1460 1460 1460 1460 1460 1460 1460 1460 1460
          1460 1460 1460 1460 1460 1460 1460 1460 1460 1460 1460 1460
          1460 1460 1460 1460 1460 1460 1460 1460 1460 1460 1460 1460
          1460 1460 1460 1460 1460 1460 1460 1460 1460 1460 1460 1460
          1460 1460 1460 1460 1460 1460 1460 1460 1460 1460 1460 1460
          1460 1460 1460 1460 1460 1460 1460 1460 1460 1460 1460 1460
          1460 1460 1460 1460 1460 1460 1460 1460 1460 1460 1460 1460
          1460 1460 1460 1460 1460 1460 1460 1460 1460 1460 1460 1460
          1460 1460 1460 1460 1460 1460 1460 1460 1460 1460 1460 1460
          1460 1460 1460 1460 1460 1460 1460 1460 1460 1460 1460 1460
          1460 1460 1460 1460 1460 1460 1460 1460 1460 1460 1460 1460
          1460 1460 1460 1460 1460 1460 1460 1460 1460 1460 1460 1460
          1460 1460 1460 1460 1460 1460 1460 1460 1460 1460 1460 1460
          1460 1460 1460 1460 1460 1460 1460 1460 1460 1460 1460 1460
          1460 1460 1460 1460 1460 1460 1460 1460 1460 1460 1460 1460
          1460 1460 1460 1460 1460 1460 1460 1460 1460 1460 1460 1460
          1460 1460 1460 1460 1460 1460 1460 1460 1460 1460 1460 1460
          1460 1460 1460 1460 1460 1460 1460 1460 1460 1460 1460 1460
          1460 1460 1460 1460 1460 1460 1460 1460 1460 1460 1460 1460
          1460 1460 1460 1460 1460 1460 1460 1460 1460 1460 1460 1460
          1460 1460 1460 1460 1460 1460 1460 1460 1460 1460 1460 1460
          1460 1460 1460 1460 1460 1460 1460 1460 1460 1460 1460 1460
          1460 1460 1460 1460 1460 1460 1460 1460 1460 1460 1460 1460
          1460 1460 1460 1460 1460
        </DataArray>
        <DataArray type="Float32" Name="saturation_wetting" NumberOfComponents="1" format="ascii">
          1 1 1 1 1 1 1 1 1 1 1 1
          1 1 1 1 1 1 1 1 1 1 1 1
          1 1 1 1 1 1 1 1 1 1 1 1
          1 1 1 1 1 1 1 1 1 1 1 1
          1 1 1 1 1 1 1 1 1 1 1 1
          1 1 1 1 1 1 1 1 1 1 1 1
          1 1 1 1 1 1 1 1 1 1 1 1
          1 1 1 1 1 1 1 1 1 1 1 1
          1 1 1 1 1 1 1 1 1 1 1 1
          1 1 1 1 1 1 1 1 1 1 1 1
          1 1 1 1 1 1 1 1 1 1 1 1
          1 1 1 1 1 1 1 1 1 1 1 1
          1 1 1 1 1 1 1 1 1 1 1 1
          1 1 1 1 1 1 1 1 1 1 1 1
          1 1 1 1 1 1 1 1 1 1 1 1
          1 1 1 1 1 1 1 1 1 1 1 1
          1 1 1 1 1 1 1 1 1 1 1 1
          1 1 1 1 1 1 1 1 1 1 1 1
          1 1 1 1 1 1 1 1 1 1 1 1
          1 1 1 1 1 1 1 1 1 1 1 1
          1 1 0.999995 0.999981 0.999975 0.999973 0.999973 0.999974 0.999982 1 1 1
          1 1 1 1 1 1 1 1 1 1 1 1
          1 1 1 0.999687 0.999398 0.999305 0.999284 0.999283 0.999292 0.999422 0.999959 1
          1 1 1 1 1 1 1 1 1 1 1 1
          1 1 1 0.999914 0.997439 0.9964 0.996122 0.996064 0.996059 0.996086 0.996473 0.999137
          1 1 1 1 1 1 1 1 1 1 1 1
          1 1 1 1 0.998692 0.991936 0.990124 0.989676 0.989588 0.989581 0.989624 0.990262
          0.995893 1 1 1 1 1 1 1 1 1 1 1
          1 1 1 1 0.999927 0.994557 0.983222 0.98087 0.980391 0.980308 0.980302 0.980343
          0.981077 0.98996 1 1 1 1 1 1 1 1 1 1
          1 1 1 1 1 0.99933 0.987072 0.972194 0.969828 0.969435 0.969375 0.969371
          0.969403 0.970084 0.981743 1 1 1 1 1 1 1 1 1
          1 1 1 1 1 1 0.998169 0.976744 0.959366 0.957482 0.957244 0.957214
          0.957212 0.957229 0.957774 0.972204 1 1 1 1 1 1 1 1
          1 1 1 1 1 1 0.999999 0.997169 0.964168 0.945082 0.944169 0.944099
          0.944092 0.944092 0.944098 0.944365 0.961864
        </DataArray>
        <DataArray type="Float32" Name="saturation_nonwetting" NumberOfComponents="1" format="ascii">
          0 0 0 0 0 0 0 0 0 0 0 0
          0 0 0 0 0 0 0 0 0 0 0 0
          0 0 0 0 0 0 0 0 0 0 0 0
          0 0 0 0 0 0 0 0 0 0 0 0
          0 0 0 0 0 0 0 0 0 0 0 0
          0 0 0 0 0 0 0 0 0 0 0 0
          0 0 0 0 0 0 0 0 0 0 0 0
          0 0 0 0 0 0 0 0 0 0 0 0
          0 0 0 0 0 0 0 0 0 0 0 0
          0 0 0 0 0 0 0 0 0 0 0 0
          0 0 0 0 0 0 0 0 0 0 0 0
          0 0 0 0 0 0 0 0 0 0 0 0
          0 0 0 0 0 0 0 0 0 0 0 0
          0 0 0 0 0 0 0 0 0 0 0 0
          0 0 0 0 0 0 0 0 0 0 0 0
          0 0 0 0 0 0 0 0 0 0 0 0
          0 0 0 0 0 0 0 0 0 0 0 0
          0 0 0 0 0 0 0 0 0 0 0 0
          0 6.03686e-11 6.84135e-10 1.1886e-09 1.3534e-09 1.39611e-09 1.35567e-09 6.58939e-10 4.69624e-14 0 0 0
          0 0 0 0 0 0 0 0 0 0 0 0
          0 2.20083e-11 5.46176e-06 1.92599e-05 2.54279e-05 2.69106e-05 2.70449e-05 2.63306e-05 1.78347e-05 1.18193e-07 0 0
          0 0 0 0 0 0 0 0 0 0 0 0
          0 0 4.67773e-07 0.000312692 0.000602164 0.000695057 0.000715537 0.000717284 0.000707532 0.000578475 4.14445e-05 0
          0 0 0 0 0 0 0 0 0 0 0 0
          0 0 1.22515e-11 8.62217e-05 0.00256061 0.00360008 0.00387843 0.00393649 0.00394128 0.0039142 0.00352713 0.00086277
          0 0 0 0 0 0 0 0 0 0 0 0
          0 0 0 3.43517e-07 0.00130794 0.0080637 0.00987605 0.0103243 0.0104121 0.0104189 0.0103764 0.00973769
          0.004107 0 0 0 0 0 0 0 0 0 0 0
          0 0 0 0 7.32147e-05 0.00544297 0.0167779 0.01913 0.0196088 0.019692 0.0196976 0.0196566
          0.0189233 0.0100401 0 0 0 0 0 0 0 0 0 0
          0 0 0 0 0 0.000669943 0.0129278 0.0278064 0.0301715 0.0305651 0.0306249 0.0306286
          0.0305966 0.0299163 0.0182574 0 0 0 0 0 0 0 0 0
          0 0 0 0 0 1.72005e-10 0.00183125 0.0232558 0.0406338 0.0425178 0.0427564 0.0427864
          0.0427884 0.0427706 0.0422259 0.0277962 0 0 0 0 0 0 0 0
          0 0 0 0 0 0 1.36562e-06 0.00283148 0.0358319 0.054918 0.0558309 0.0559014
          0.0559079 0.0559084 0.0559022 0.055635 0.0381361
        </DataArray>
        <DataArray type="Float32" Name="relativePerm_wetting" NumberOfComponents="1" format="ascii">
          1 1 1 1 1 1 1 1 1 1 1 1
          1 1 1 1 1 1 1 1 1 1 1 1
          1 1 1 1 1 1 1 1 1 1 1 1
          1 1 1 1 1 1 1 1 1 1 1 1
          1 1 1 1 1 1 1 1 1 1 1 1
          1 1 1 1 1 1 1 1 1 1 1 1
          1 1 1 1 1 1 1 1 1 1 1 1
          1 1 1 1 1 1 1 1 1 1 1 1
          1 1 1 1 1 1 1 1 1 1 1 1
          1 1 1 1 1 1 1 1 1 1 1 1
          1 1 1 1 1 1 1 1 1 1 1 1
          1 1 1 1 1 1 1 1 1 1 1 1
          1 1 1 1 1 1 1 1 1 1 1 1
          1 1 1 1 1 1 1 1 1 1 1 1
          1 1 1 1 1 1 1 1 1 1 1 1
          1 1 1 1 1 1 1 1 1 1 1 1
          1 1 1 1 1 1 1 1 1 1 1 1
          1 1 1 1 1 1 1 1 1 1 1 1
          1 1 1 1 1 1 1 1 1 1 1 1
          1 1 1 1 1 1 1 1 1 1 1 1
          1 1 0.999824 0.999522 0.999404 0.999377 0.999375 0.999388 0.99955 0.999991 1 1
          1 1 1 1 1 1 1 1 1 1 1 1
          1 1 0.999975 0.995645 0.992672 0.991787 0.991596 0.991579 0.99167 0.992902 0.999123 1
          1 1 1 1 1 1 1 1 1 1 1 1
          1 1 1 0.998433 0.976866 0.969689 0.967847 0.967466 0.967435 0.967612 0.970177 0.990249
          1 1 1 1 1 1 1 1 1 1 1 1
          1 1 1 0.99998 0.986429 0.942662 0.932746 0.93036 0.929896 0.92986 0.930085 0.933488
          0.966355 1 1 1 1 1 1 1 1 1 1 1
          1 1 1 1 0.998623 0.957955 0.898204 0.887285 0.885105 0.884728 0.884702 0.884888
          0.888231 0.93187 1 1 1 1 1 1 1 1 1 1
          1 1 1 1 1 0.992024 0.916937 0.849629 0.839949 0.838359 0.838118 0.838103
          0.838232 0.840983 0.891295 1 1 1 1 1 1 1 1 1
          1 1 1 1 1 1 0.982271 0.868918 0.799465 0.792527 0.791655 0.791546
          0.791538 0.791603 0.793595 0.849671 1 1 1 1 1 1 1 1
          1 1 1 1 1 1 0.999941 0.974945 0.817609 0.749077 0.746015 0.74578
          0.745758 0.745756 0.745777 0.746671 0.808817
        </DataArray>
        <DataArray type="Float32" Name="relativePerm_nonwetting" NumberOfComponents="1" format="ascii">
          0 0 0 0 0 0 0 0 0 0 0 0
          0 0 0 0 0 0 0 0 0 0 0 0
          0 0 0 0 0 0 0 0 0 0 0 0
          0 0 0 0 0 0 0 0 0 0 0 0
          0 0 0 0 0 0 0 0 0 0 0 0
          0 0 0 0 0 0 0 0 0 0 0 0
          0 0 0 0 0 0 0 0 0 0 0 0
          0 0 0 0 0 0 0 0 0 0 0 0
          0 0 0 0 0 0 0 0 0 0 0 0
          0 0 0 0 0 0 0 0 0 0 0 0
          0 0 0 0 0 0 0 0 0 0 0 0
          0 0 0 0 0 0 0 0 0 0 0 0
          0 0 0 0 0 0 0 0 0 0 0 0
          0 0 0 0 0 0 0 0 0 0 0 0
          0 0 0 0 0 0 0 0 0 0 0 0
          0 0 0 0 0 0 0 0 0 0 0 0
          0 0 0 0 0 0 0 0 0 0 0 0
          0 0 0 0 0 0 0 0 0 0 0 0
          0 1.16262e-21 1.72459e-19 5.37915e-19 7.0282e-19 7.49256e-19 7.05245e-19 1.59634e-19 4.59773e-28 0 0 0
          0 0 0 0 0 0 0 0 0 0 0 0
          0 6.78189e-21 1.32879e-10 1.47108e-09 2.49933e-09 2.78471e-09 2.81128e-09 2.67132e-09 1.27039e-09 8.86051e-14 0 0
          0 0 0 0 0 0 0 0 0 0 0 0
          0 0 1.22255e-12 2.99869e-07 1.04679e-06 1.37632e-06 1.45471e-06 1.4615e-06 1.42382e-06 9.69638e-07 6.34708e-09 0
          0 0 0 0 0 0 0 0 0 0 0 0
          0 0 2.21828e-21 2.56766e-08 1.65569e-05 3.17085e-05 3.65474e-05 3.75978e-05 3.76851e-05 3.7193e-05 3.04945e-05 2.07873e-06
          0 0 0 0 0 0 0 0 0 0 0 0
          0 0 0 6.7835e-13 4.5971e-06 0.000147543 0.000217135 0.000236301 0.000240143 0.000240443 0.000238576 0.000211374
          4.07644e-05 0 0 0 0 0 0 0 0 0 0 0
          0 0 0 0 1.87953e-08 6.97433e-05 0.000595902 0.000764995 0.000801848 0.000808341 0.00080878 0.000805575
          0.000749332 0.000224059 0 0 0 0 0 0 0 0 0 0
          0 0 0 0 0 1.28301e-06 0.000362701 0.00155857 0.00182029 0.0018657 0.00187264 0.00187308
          0.00186936 0.00179112 0.000699931 0 0 0 0 0 0 0 0 0
          0 0 0 0 0 3.42715e-19 8.7353e-06 0.00110938 0.00320488 0.00349289 0.00353019 0.0035349
          0.00353521 0.00353242 0.0034475 0.00155749 0 0 0 0 0 0 0 0
          0 0 0 0 0 0 9.43957e-12 2.00571e-05 0.00252387 0.00567602 0.00585621 0.00587023
          0.00587153 0.00587162 0.00587038 0.00581732 0.0028411
        </DataArray>
        <DataArray type="Float32" Name="porosity" NumberOfComponents="1" format="ascii">
          0.4 0.4 0.4 0.4 0.4 0.4 0.4 0.4 0.4 0.4 0.4 0.4
          0.4 0.4 0.4 0.4 0.4 0.4 0.4 0.4 0.4 0.4 0.4 0.4
          0.4 0.4 0.4 0.4 0.4 0.4 0.4 0.4 0.4 0.4 0.4 0.4
          0.4 0.4 0.4 0.4 0.4 0.4 0.4 0.4 0.4 0.4 0.4 0.4
          0.4 0.4 0.4 0.4 0.4 0.4 0.4 0.4 0.4 0.4 0.4 0.4
          0.4 0.4 0.4 0.4 0.4 0.4 0.4 0.4 0.4 0.4 0.4 0.4
          0.4 0.4 0.4 0.4 0.4 0.4 0.4 0.4 0.4 0.4 0.4 0.4
          0.4 0.4 0.4 0.4 0.4 0.4 0.4 0.4 0.4 0.4 0.4 0.4
          0.4 0.4 0.4 0.4 0.4 0.4 0.4 0.4 0.4 0.4 0.4 0.4
          0.4 0.4 0.4 0.4 0.4 0.4 0.4 0.4 0.4 0.4 0.4 0.4
          0.4 0.4 0.4 0.4 0.4 0.4 0.4 0.4 0.4 0.4 0.4 0.4
          0.4 0.4 0.4 0.4 0.4 0.4 0.4 0.4 0.4 0.4 0.4 0.4
          0.4 0.4 0.4 0.4 0.4 0.4 0.4 0.4 0.4 0.4 0.4 0.4
          0.4 0.4 0.4 0.4 0.4 0.4 0.4 0.4 0.4 0.4 0.4 0.4
          0.4 0.4 0.4 0.4 0.4 0.4 0.4 0.4 0.4 0.4 0.4 0.4
          0.4 0.4 0.4 0.4 0.4 0.4 0.4 0.4 0.4 0.4 0.4 0.4
          0.4 0.4 0.4 0.4 0.4 0.4 0.4 0.4 0.4 0.4 0.4 0.4
          0.4 0.4 0.4 0.4 0.4 0.4 0.4 0.4 0.4 0.4 0.4 0.4
          0.4 0.4 0.4 0.4 0.4 0.4 0.4 0.4 0.4 0.4 0.4 0.4
          0.4 0.4 0.4 0.4 0.4 0.4 0.4 0.4 0.4 0.4 0.4 0.4
          0.4 0.4 0.4 0.4 0.4 0.4 0.4 0.4 0.4 0.4 0.4 0.4
          0.4 0.4 0.4 0.4 0.4 0.4 0.4 0.4 0.4 0.4 0.4 0.4
          0.4 0.4 0.4 0.4 0.4 0.4 0.4 0.4 0.4 0.4 0.4 0.4
          0.4 0.4 0.4 0.4 0.4 0.4 0.4 0.4 0.4 0.4 0.4 0.4
          0.4 0.4 0.4 0.4 0.4 0.4 0.4 0.4 0.4 0.4 0.4 0.4
          0.4 0.4 0.4 0.4 0.4 0.4 0.4 0.4 0.4 0.4 0.4 0.4
          0.4 0.4 0.4 0.4 0.4 0.4 0.4 0.4 0.4 0.4 0.4 0.4
          0.4 0.4 0.4 0.4 0.4 0.4 0.4 0.4 0.4 0.4 0.4 0.4
          0.4 0.4 0.4 0.4 0.4 0.4 0.4 0.4 0.4 0.4 0.4 0.4
          0.4 0.4 0.4 0.4 0.4 0.4 0.4 0.4 0.4 0.4 0.4 0.4
          0.4 0.4 0.4 0.4 0.4 0.4 0.4 0.4 0.4 0.4 0.4 0.4
          0.4 0.4 0.4 0.4 0.4 0.4 0.4 0.4 0.4 0.4 0.4 0.4
          0.4 0.4 0.4 0.4 0.4 0.4 0.4 0.4 0.4 0.4 0.4 0.4
          0.4 0.4 0.4 0.4 0.4 0.4 0.4 0.4 0.4 0.4 0.4 0.4
          0.4 0.4 0.4 0.4 0.4 0.4 0.4 0.4 0.4 0.4 0.4 0.4
          0.4 0.4 0.4 0.4 0.4
        </DataArray>
        <DataArray type="Float32" Name="intrinsicPerm[0]" NumberOfComponents="3" format="ascii">
          4.6e-10 0 0 4.6e-10 0 0 4.6e-10 0 0 4.6e-10 0 0
          4.6e-10 0 0 4.6e-10 0 0 4.6e-10 0 0 4.6e-10 0 0
          4.6e-10 0 0 4.6e-10 0 0 4.6e-10 0 0 4.6e-10 0 0
          4.6e-10 0 0 4.6e-10 0 0 4.6e-10 0 0 4.6e-10 0 0
          9.05e-12 0 0 9.05e-12 0 0 9.05e-12 0 0 9.05e-12 0 0
          9.05e-12 0 0 9.05e-12 0 0 9.05e-12 0 0 9.05e-12 0 0
          9.05e-12 0 0 9.05e-12 0 0 9.05e-12 0 0 9.05e-12 0 0
          9.05e-12 0 0 9.05e-12 0 0 9.05e-12 0 0 9.05e-12 0 0
          9.05e-12 0 0 9.05e-12 0 0 9.05e-12 0 0 9.05e-12 0 0
          9.05e-12 0 0 9.05e-12 0 0 9.05e-12 0 0 9.05e-12 0 0
          9.05e-12 0 0 9.05e-12 0 0 9.05e-12 0 0 9.05e-12 0 0
          9.05e-12 0 0 9.05e-12 0 0 9.05e-12 0 0 9.05e-12 0 0
          9.05e-12 0 0 9.05e-12 0 0 4.6e-10 0 0 4.6e-10 0 0
          4.6e-10 0 0 4.6e-10 0 0 4.6e-10 0 0 4.6e-10 0 0
          4.6e-10 0 0 4.6e-10 0 0 9.05e-12 0 0 9.05e-12 0 0
          9.05e-12 0 0 9.05e-12 0 0 9.05e-12 0 0 9.05e-12 0 0
          9.05e-12 0 0 9.05e-12 0 0 9.05e-12 0 0 9.05e-12 0 0
          9.05e-12 0 0 9.05e-12 0 0 9.05e-12 0 0 9.05e-12 0 0
          9.05e-12 0 0 9.05e-12 0 0 9.05e-12 0 0 4.6e-10 0 0
          4.6e-10 0 0 4.6e-10 0 0 4.6e-10 0 0 4.6e-10 0 0
          4.6e-10 0 0 4.6e-10 0 0 4.6e-10 0 0 9.05e-12 0 0
          9.05e-12 0 0 9.05e-12 0 0 9.05e-12 0 0 9.05e-12 0 0
          9.05e-12 0 0 9.05e-12 0 0 9.05e-12 0 0 9.05e-12 0 0
          9.05e-12 0 0 9.05e-12 0 0 9.05e-12 0 0 9.05e-12 0 0
          9.05e-12 0 0 9.05e-12 0 0 9.05e-12 0 0 9.05e-12 0 0
          4.6e-10 0 0 4.6e-10 0 0 4.6e-10 0 0 4.6e-10 0 0
          4.6e-10 0 0 4.6e-10 0 0 4.6e-10 0 0 4.6e-10 0 0
          9.05e-12 0 0 9.05e-12 0 0 9.05e-12 0 0 9.05e-12 0 0
          9.05e-12 0 0 9.05e-12 0 0 9.05e-12 0 0 9.05e-12 0 0
          9.05e-12 0 0 9.05e-12 0 0 9.05e-12 0 0 9.05e-12 0 0
          9.05e-12 0 0 9.05e-12 0 0 9.05e-12 0 0 9.05e-12 0 0
          9.05e-12 0 0 4.6e-10 0 0 4.6e-10 0 0 4.6e-10 0 0
          4.6e-10 0 0 4.6e-10 0 0 4.6e-10 0 0 4.6e-10 0 0
          4.6e-10 0 0 9.05e-12 0 0 9.05e-12 0 0 9.05e-12 0 0
          9.05e-12 0 0 9.05e-12 0 0 9.05e-12 0 0 9.05e-12 0 0
          9.05e-12 0 0 9.05e-12 0 0 9.05e-12 0 0 9.05e-12 0 0
          9.05e-12 0 0 9.05e-12 0 0 9.05e-12 0 0 9.05e-12 0 0
          9.05e-12 0 0 9.05e-12 0 0 4.6e-10 0 0 4.6e-10 0 0
          4.6e-10 0 0 4.6e-10 0 0 4.6e-10 0 0 4.6e-10 0 0
          4.6e-10 0 0 4.6e-10 0 0 9.05e-12 0 0 9.05e-12 0 0
          9.05e-12 0 0 9.05e-12 0 0 9.05e-12 0 0 9.05e-12 0 0
          9.05e-12 0 0 9.05e-12 0 0 9.05e-12 0 0 9.05e-12 0 0
          9.05e-12 0 0 9.05e-12 0 0 9.05e-12 0 0 9.05e-12 0 0
          9.05e-12 0 0 9.05e-12 0 0 9.05e-12 0 0 4.6e-10 0 0
          4.6e-10 0 0 4.6e-10 0 0 4.6e-10 0 0 4.6e-10 0 0
          4.6e-10 0 0 4.6e-10 0 0 4.6e-10 0 0 9.05e-12 0 0
          9.05e-12 0 0 9.05e-12 0 0 9.05e-12 0 0 9.05e-12 0 0
          9.05e-12 0 0 9.05e-12 0 0 9.05e-12 0 0 9.05e-12 0 0
          9.05e-12 0 0 9.05e-12 0 0 9.05e-12 0 0 9.05e-12 0 0
          9.05e-12 0 0 9.05e-12 0 0 9.05e-12 0 0 9.05e-12 0 0
          4.6e-10 0 0 4.6e-10 0 0 4.6e-10 0 0 4.6e-10 0 0
          4.6e-10 0 0 4.6e-10 0 0 4.6e-10 0 0 4.6e-10 0 0
          9.05e-12 0 0 9.05e-12 0 0 9.05e-12 0 0 9.05e-12 0 0
          9.05e-12 0 0 9.05e-12 0 0 9.05e-12 0 0 9.05e-12 0 0
          9.05e-12 0 0 9.05e-12 0 0 9.05e-12 0 0 9.05e-12 0 0
          9.05e-12 0 0 9.05e-12 0 0 9.05e-12 0 0 9.05e-12 0 0
          9.05e-12 0 0 4.6e-10 0 0 4.6e-10 0 0 4.6e-10 0 0
          4.6e-10 0 0 4.6e-10 0 0 4.6e-10 0 0 4.6e-10 0 0
          4.6e-10 0 0 4.6e-10 0 0 4.6e-10 0 0 4.6e-10 0 0
          4.6e-10 0 0 4.6e-10 0 0 4.6e-10 0 0 4.6e-10 0 0
          4.6e-10 0 0 4.6e-10 0 0 4.6e-10 0 0 4.6e-10 0 0
          4.6e-10 0 0 4.6e-10 0 0 4.6e-10 0 0 4.6e-10 0 0
          4.6e-10 0 0 4.6e-10 0 0 4.6e-10 0 0 4.6e-10 0 0
          4.6e-10 0 0 4.6e-10 0 0 4.6e-10 0 0 4.6e-10 0 0
          4.6e-10 0 0 4.6e-10 0 0 4.6e-10 0 0 4.6e-10 0 0
          4.6e-10 0 0 4.6e-10 0 0 4.6e-10 0 0 4.6e-10 0 0
          4.6e-10 0 0 4.6e-10 0 0 4.6e-10 0 0 4.6e-10 0 0
          4.6e-10 0 0 4.6e-10 0 0 4.6e-10 0 0 4.6e-10 0 0
          4.6e-10 0 0 4.6e-10 0 0 4.6e-10 0 0 4.6e-10 0 0
          4.6e-10 0 0 4.6e-10 0 0 4.6e-10 0 0 4.6e-10 0 0
          4.6e-10 0 0 4.6e-10 0 0 4.6e-10 0 0 4.6e-10 0 0
          4.6e-10 0 0 4.6e-10 0 0 4.6e-10 0 0 4.6e-10 0 0
          4.6e-10 0 0 4.6e-10 0 0 4.6e-10 0 0 4.6e-10 0 0
          4.6e-10 0 0 4.6e-10 0 0 4.6e-10 0 0 4.6e-10 0 0
          4.6e-10 0 0 4.6e-10 0 0 4.6e-10 0 0 4.6e-10 0 0
          4.6e-10 0 0 4.6e-10 0 0 4.6e-10 0 0 4.6e-10 0 0
          4.6e-10 0 0 4.6e-10 0 0 4.6e-10 0 0 4.6e-10 0 0
          4.6e-10 0 0 4.6e-10 0 0 4.6e-10 0 0 4.6e-10 0 0
          4.6e-10 0 0 4.6e-10 0 0 4.6e-10 0 0 4.6e-10 0 0
          4.6e-10 0 0 4.6e-10 0 0 4.6e-10 0 0 4.6e-10 0 0
          4.6e-10 0 0 4.6e-10 0 0 4.6e-10 0 0 4.6e-10 0 0
          4.6e-10 0 0 4.6e-10 0 0 4.6e-10 0 0 4.6e-10 0 0
          4.6e-10 0 0 4.6e-10 0 0 4.6e-10 0 0 4.6e-10 0 0
          4.6e-10 0 0 4.6e-10 0 0 4.6e-10 0 0 4.6e-10 0 0
          4.6e-10 0 0 4.6e-10 0 0 4.6e-10 0 0 4.6e-10 0 0
          4.6e-10 0 0 4.6e-10 0 0 4.6e-10 0 0 4.6e-10 0 0
          4.6e-10 0 0 4.6e-10 0 0 4.6e-10 0 0 4.6e-10 0 0
          4.6e-10 0 0 4.6e-10 0 0 4.6e-10 0 0 4.6e-10 0 0
          4.6e-10 0 0 4.6e-10 0 0 4.6e-10 0 0 4.6e-10 0 0
          4.6e-10 0 0 4.6e-10 0 0 4.6e-10 0 0 4.6e-10 0 0
          4.6e-10 0 0 4.6e-10 0 0 4.6e-10 0 0 4.6e-10 0 0
          4.6e-10 0 0 4.6e-10 0 0 4.6e-10 0 0 4.6e-10 0 0
          4.6e-10 0 0 4.6e-10 0 0 4.6e-10 0 0 4.6e-10 0 0
          4.6e-10 0 0 4.6e-10 0 0 4.6e-10 0 0 4.6e-10 0 0
          4.6e-10 0 0 4.6e-10 0 0 4.6e-10 0 0 4.6e-10 0 0
          4.6e-10 0 0 4.6e-10 0 0 4.6e-10 0 0 4.6e-10 0 0
          4.6e-10 0 0 4.6e-10 0 0 4.6e-10 0 0 4.6e-10 0 0
          4.6e-10 0 0 4.6e-10 0 0 4.6e-10 0 0 4.6e-10 0 0
          4.6e-10 0 0 4.6e-10 0 0 4.6e-10 0 0 4.6e-10 0 0
          4.6e-10 0 0 4.6e-10 0 0 4.6e-10 0 0 4.6e-10 0 0
          4.6e-10 0 0 4.6e-10 0 0 4.6e-10 0 0 4.6e-10 0 0
          4.6e-10 0 0 4.6e-10 0 0 4.6e-10 0 0 4.6e-10 0 0
          4.6e-10 0 0 4.6e-10 0 0 4.6e-10 0 0 4.6e-10 0 0
          4.6e-10 0 0 4.6e-10 0 0 4.6e-10 0 0 4.6e-10 0 0
          4.6e-10 0 0 4.6e-10 0 0 4.6e-10 0 0 4.6e-10 0 0
          4.6e-10 0 0 4.6e-10 0 0 4.6e-10 0 0 4.6e-10 0 0
          4.6e-10 0 0
        </DataArray>
        <DataArray type="Float32" Name="intrinsicPerm[1]" NumberOfComponents="3" format="ascii">
          0 4.6e-10 0 0 4.6e-10 0 0 4.6e-10 0 0 4.6e-10 0
          0 4.6e-10 0 0 4.6e-10 0 0 4.6e-10 0 0 4.6e-10 0
          0 4.6e-10 0 0 4.6e-10 0 0 4.6e-10 0 0 4.6e-10 0
          0 4.6e-10 0 0 4.6e-10 0 0 4.6e-10 0 0 4.6e-10 0
          0 9.05e-12 0 0 9.05e-12 0 0 9.05e-12 0 0 9.05e-12 0
          0 9.05e-12 0 0 9.05e-12 0 0 9.05e-12 0 0 9.05e-12 0
          0 9.05e-12 0 0 9.05e-12 0 0 9.05e-12 0 0 9.05e-12 0
          0 9.05e-12 0 0 9.05e-12 0 0 9.05e-12 0 0 9.05e-12 0
          0 9.05e-12 0 0 9.05e-12 0 0 9.05e-12 0 0 9.05e-12 0
          0 9.05e-12 0 0 9.05e-12 0 0 9.05e-12 0 0 9.05e-12 0
          0 9.05e-12 0 0 9.05e-12 0 0 9.05e-12 0 0 9.05e-12 0
          0 9.05e-12 0 0 9.05e-12 0 0 9.05e-12 0 0 9.05e-12 0
          0 9.05e-12 0 0 9.05e-12 0 0 4.6e-10 0 0 4.6e-10 0
          0 4.6e-10 0 0 4.6e-10 0 0 4.6e-10 0 0 4.6e-10 0
          0 4.6e-10 0 0 4.6e-10 0 0 9.05e-12 0 0 9.05e-12 0