<?xml version="1.0"?>
<VTKFile type="UnstructuredGrid" version="0.1" byte_order="LittleEndian">
  <UnstructuredGrid>
    <Piece NumberOfCells="384" NumberOfPoints="425">
      <CellData Scalars="pressure_wetting">
        <DataArray type="Float32" Name="pressure_wetting" NumberOfComponents="1" format="ascii">
          126053 125974 125898 125828 125766 125717 125686 125675 125779 125798 125740 125640
          125512 125366 125205 125033 124853 124666 124472 124274 124072 123866 123656 123442
          124388 124329 124273 124221 124176 124140 124116 124105 124112 124084 124015 123915
          123794 123657 123509 123351 123186 123015 122839 122658 122472 122283 122089 121892
          122722 122682 122644 122609 122577 122551 122533 122523 122489 122412 122320 122211
          122091 121960 121822 121677 121526 121370 121210 121045 120877 120704 120527 120346
          121055 121034 121013 120992 120972 120955 120942 120934 120873 120757 120640 120520
          120398 120271 120142 120008 119871 119730 119585 119437 119285 119130 118970 118806
          119388 119385 119381 119374 119365 119355 119345 119338 119255 119103 118963 118833
          118708 118586 118465 118343 118219 118093 117964 117832 117697 117559 117417 117271
          117722 117738 117751 117758 117760 117755 117747 117737 117627 117436 117276 117139
          117016 116900 116789 116680 116570 116459 116346 116230 116113 115992 115868 115741
          116058 116095 116126 116148 116160 116159 116148 116132 115973 115740 115567 115431
          115315 115211 115112 115017 114922 114826 114730 114631 114531 114428 114323 114216
          114397 114458 114510 114549 114571 114574 114555 114518 114239 113982 113821 113702
          113603 113515 113432 113353 113274 113195 113115 113034 112951 112867 112780 112693
          112741 112830 112906 112966 113003 113011 112979 112876 112608 112435 112309 112209
          112123 112046 111973 111903 111833 111763 111692 111619 111545 111470 111394 111316
          111090 111213 111320 111406 111464 111489 111472 111402 111270 111149 111047 110958
          110879 110806 110736 110668 110599 110530 110460 110387 110314 110238 110162 110085
          109448 109612 109756 109873 109959 110008 110019 109988 109922 109846 109770 109698
          109629 109562 109497 109432 109366 109299 109229 109157 109083 109008 108931 108854
          107817 108031 108218 108372 108489 108567 108606 108610 108584 108541 108489 108434
          108376 108317 108258 108197 108135 108068 107999 107928 107854 107779 107702 107623
          106201 106477 106714 106908 107057 107164 107230 107262 107264 107245 107213 107172
          107124 107073 107019 106963 106905 106840 106771 106700 106626 106551 106473 106393
          104610 104961 105254 105489 105669 105801 105890 105942 105964 105963 105945 105915
          105877 105832 105783 105731 105677 105612 105544 105473 105400 105324 105245 105165
          103062 103503 103852 104123 104329 104480 104585 104652 104688 104698 104690 104668
          104635 104595 104550 104502 104450 104386 104318 104247 104174 104098 104019 103937
          101605 102137 102529 102823 103044 103206 103320 103394 103436 103452 103449 103430
          103401 103364 103321 103274 103225 103161 103093 103022 102948 102872 102793 102710
        </DataArray>
        <DataArray type="Float32" Name="pressure_nonwetting" NumberOfComponents="1" format="ascii">
          126053 125974 125898 125828 125766 125717 125686 125675 125779 125798 125740 125640
          125512 125366 125205 125033 124853 124666 124472 124274 124072 123866 123656 123442
          124388 124329 124273 124221 124176 124140 124116 124105 124112 124084 124015 123915
          123794 123657 123509 123351 123186 123015 122839 122658 122472 122283 122089 121892
          122722 122682 122644 122609 122577 122551 122533 122523 122489 122412 122320 122211
          122091 121960 121822 121677 121526 121370 121210 121045 120877 120704 120527 120346
          121055 121034 121013 120992 120972 120955 120942 120934 120873 120757 120640 120520
          120398 120271 120142 120008 119871 119730 119585 119437 119285 119130 118970 118806
          119388 119385 119381 119374 119365 119355 119345 119338 119255 119103 118963 118833
          118708 118586 118465 118343 118219 118093 117964 117832 117697 117559 117417 117271
          117722 117738 117751 117758 117760 117755 117747 117737 117627 117436 117276 117139
          117016 116900 116789 116680 116570 116459 116346 116230 116113 115992 115868 115741
          116058 116095 116126 116148 116160 116159 116148 116132 115973 115740 115567 115431
          115315 115211 115112 115017 114922 114826 114730 114631 114531 114428 114323 114216
          114397 114458 114510 114549 114571 114574 114555 114518 114239 113982 113821 113702
          113603 113515 113432 113353 113274 113195 113115 113034 112951 112867 112780 112693
          112741 112830 112906 112966 113003 113011 112979 112876 112608 112435 112309 112209
          112123 112046 111973 111903 111833 111763 111692 111619 111545 111470 111394 111316
          111090 111213 111320 111406 111464 111489 111472 111402 111270 111149 111047 110958
          110879 110806 110736 110668 110600 110533 110463 110391 110318 110243 110166 110087
          109448 109612 109756 109873 109959 110008 110019 109988 109922 109846 109770 109698
          109629 109562 109497 109432 109380 109330 109265 109195 109121 109046 108969 108881
          107817 108031 108218 108372 108489 108567 108606 108610 108584 108541 108489 108434
          108376 108317 108258 108197 108200 108157 108092 108022 107948 107873 107796 107708
          106201 106477 106714 106908 107057 107164 107230 107262 107264 107245 107213 107172
          107124 107073 107019 106972 107013 106955 106888 106817 106743 106668 106590 106507
          104610 104961 105254 105489 105669 105801 105890 105942 105964 105963 105945 105915
          105877 105832 105783 105759 105801 105742 105675 105604 105531 105455 105376 105293
          103062 103503 103852 104123 104329 104480 104585 104652 104688 104698 104690 104668
          104635 104595 104550 104552 104588 104528 104460 104390 104316 104240 104161 104077
          101605 102137 102529 102823 103044 103206 103320 103394 103436 103452 103449 103430
          103401 103364 103321 103340 103374 103312 103245 103174 103100 103024 102945 102861
        </DataArray>
        <DataArray type="Float32" Name="density_wetting" NumberOfComponents="1" format="ascii">
          1000 1000 1000 1000 1000 1000 1000 1000 1000 1000 1000 1000
          1000 1000 1000 1000 1000 1000 1000 1000 1000 1000 1000 1000
          1000 1000 1000 1000 1000 1000 1000 1000 1000 1000 1000 1000
          1000 1000 1000 1000 1000 1000 1000 1000 1000 1000 1000 1000
          1000 1000 1000 1000 1000 1000 1000 1000 1000 1000 1000 1000
          1000 1000 1000 1000 1000 1000 1000 1000 1000 1000 1000 1000
          1000 1000 1000 1000 1000 1000 1000 1000 1000 1000 1000 1000
          1000 1000 1000 1000 1000 1000 1000 1000 1000 1000 1000 1000
          1000 1000 1000 1000 1000 1000 1000 1000 1000 1000 1000 1000
          1000 1000 1000 1000 1000 1000 1000 1000 1000 1000 1000 1000
          1000 1000 1000 1000 1000 1000 1000 1000 1000 1000 1000 1000
          1000 1000 1000 1000 1000 1000 1000 1000 1000 1000 1000 1000
          1000 1000 1000 1000 1000 1000 1000 1000 1000 1000 1000 1000
          1000 1000 1000 1000 1000 1000 1000 1000 1000 1000 1000 1000
          1000 1000 1000 1000 1000 1000 1000 1000 1000 1000 1000 1000
          1000 1000 1000 1000 1000 1000 1000 1000 1000 1000 1000 1000
          1000 1000 1000 1000 1000 1000 1000 1000 1000 1000 1000 1000
          1000 1000 1000 1000 1000 1000 1000 1000 1000 1000 1000 1000
          1000 1000 1000 1000 1000 1000 1000 1000 1000 1000 1000 1000
          1000 1000 1000 1000 1000 1000 1000 1000 1000 1000 1000 1000
          1000 1000 1000 1000 1000 1000 1000 1000 1000 1000 1000 1000
          1000 1000 1000 1000 1000 1000 1000 1000 1000 1000 1000 1000
          1000 1000 1000 1000 1000 1000 1000 1000 1000 1000 1000 1000
          1000 1000 1000 1000 1000 1000 1000 1000 1000 1000 1000 1000
          1000 1000 1000 1000 1000 1000 1000 1000 1000 1000 1000 1000
          1000 1000 1000 1000 1000 1000 1000 1000 1000 1000 1000 1000
          1000 1000 1000 1000 1000 1000 1000 1000 1000 1000 1000 1000
          1000 1000 1000 1000 1000 1000 1000 1000 1000 1000 1000 1000
          1000 1000 1000 1000 1000 1000 1000 1000 1000 1000 1000 1000
          1000 1000 1000 1000 1000 1000 1000 1000 1000 1000 1000 1000
          1000 1000 1000 1000 1000 1000 1000 1000 1000 1000 1000 1000
          1000 1000 1000 1000 1000 1000 1000 1000 1000 1000 1000 1000
        </DataArray>
        <DataArray type="Float32" Name="density_nonwetting" NumberOfComponents="1" format="ascii">
          1460 1460 1460 1460 1460 1460 1460 1460 1460 1460 1460 1460
          1460 1460 1460 1460 1460 1460 1460 1460 1460 1460 1460 1460
          1460 1460 1460 1460 1460 1460 1460 1460 1460 1460 1460 1460
          1460 1460 1460 1460 1460 1460 1460 1460 1460 1460 1460 1460
          1460 1460 1460 1460 1460 1460 1460 1460 1460 1460 1460 1460
          1460 1460 1460 1460 1460 1460 1460 1460 1460 1460 1460 1460
          1460 1460 1460 1460 1460 1460 1460 1460 1460 1460 1460 1460
          1460 1460 1460 1460 1460 1460 1460 1460 1460 1460 1460 1460
          1460 1460 1460 1460 1460 1460 1460 1460 1460 1460 1460 1460
          1460 1460 1460 1460 1460 1460 1460 1460 1460 1460 1460 1460
          1460 1460 1460 1460 1460 1460 1460 1460 1460 1460 1460 1460
          1460 1460 1460 1460 1460 1460 1460 1460 1460 1460 1460 1460
          1460 1460 1460 1460 1460 1460 1460 1460 1460 1460 1460 1460
          1460 1460 1460 1460 1460 1460 1460 1460 1460 1460 1460 1460
          1460 1460 1460 1460 1460 1460 1460 1460 1460 1460 1460 1460
          1460 1460 1460 1460 1460 1460 1460 1460 1460 1460 1460 1460
          1460 1460 1460 1460 1460 1460 1460 1460 1460 1460 1460 1460
          1460 1460 1460 1460 1460 1460 1460 1460 1460 1460 1460 1460
          1460 1460 1460 1460 1460 1460 1460 1460 1460 1460 1460 1460
          1460 1460 1460 1460 1460 1460 1460 1460 1460 1460 1460 1460
          1460 1460 1460 1460 1460 1460 1460 1460 1460 1460 1460 1460
          1460 1460 1460 1460 1460 1460 1460 1460 1460 1460 1460 1460
          1460 1460 1460 1460 1460 1460 1460 1460 1460 1460 1460 1460
          1460 1460 1460 1460 1460 1460 1460 1460 1460 1460 1460 1460
          1460 1460 1460 1460 1460 1460 1460 1460 1460 1460 1460 1460
          1460 1460 1460 1460 1460 1460 1460 1460 1460 1460 1460 1460
          1460 1460 1460 1460 1460 1460 1460 1460 1460 1460 1460 1460
          1460 1460 1460 1460 1460 1460 1460 1460 1460 1460 1460 1460
          1460 1460 1460 1460 1460 1460 1460 1460 1460 1460 1460 1460
          1460 1460 1460 1460 1460 1460 1460 1460 1460 1460 1460 1460
          1460 1460 1460 1460 1460 1460 1460 1460 1460 1460 1460 1460
          1460 1460 1460 1460 1460 1460 1460 1460 1460 1460 1460 1460
        </DataArray>
        <DataArray type="Float32" Name="saturation_wetting" NumberOfComponents="1" format="ascii">
          1 1 1 1 1 1 1 1 1 1 1 1
          1 1 1 1 1 1 1 1 1 1 1 1
          1 1 1 1 1 1 1 1 1 1 1 1
          1 1 1 1 1 1 1 1 1 1 1 1
          1 1 1 1 1 1 1 1 1 1 1 1
          1 1 1 1 1 1 1 1 1 1 1 1
          1 1 1 1 1 1 1 1 1 1 1 1
          1 1 1 1 1 1 1 1 1 1 1 1
          1 1 1 1 1 1 1 1 1 1 1 1
          1 1 1 1 1 1 1 1 1 1 1 1
          1 1 1 1 1 1 1 1 1 1 1 1
          1 1 1 1 1 1 1 1 1 1 1 1
          1 1 1 1 1 1 1 1 1 1 1 1
          1 1 1 1 1 1 1 1 1 1 1 1
          1 1 1 1 1 1 1 1 1 1 1 1
          1 1 1 1 1 1 1 1 1 1 1 1
          1 1 1 1 1 1 1 1 1 1 1 1
          1 1 1 1 1 0.999999 0.999998 0.999998 0.999998 0.999998 0.999998 0.999999
          1 1 1 1 1 1 1 1 1 1 1 1
          1 1 1 1 0.999975 0.999869 0.999818 0.999804 0.999801 0.999801 0.99981 0.9999
          1 1 1 1 1 1 1 1 1 1 1 1
          1 1 1 1 0.999312 0.998375 0.998071 0.997996 0.997982 0.997985 0.998029 0.998586
          1 1 1 1 1 1 1 1 1 1 1 1
          1 1 1 0.999988 0.996135 0.993823 0.993207 0.993066 0.993041 0.993047 0.993131 0.994321
          1 1 1 1 1 1 1 1 1 1 1 1
          1 1 1 0.999596 0.989638 0.985939 0.985112 0.984944 0.984917 0.984924 0.985019 0.98675
          1 1 1 1 1 1 1 1 1 1 1 1
          1 1 1 0.998595 0.979869 0.975625 0.974843 0.974706 0.974685 0.974692 0.974776 0.976568
          1 1 1 1 1 1 1 1 1 1 1 1
          1 1 0.999999 0.997235 0.967697 0.963727 0.963149 0.963064 0.963053 0.963057 0.963115 0.964757
          1 1 1 1 1 1 1 1 1 1 1 1
          1 1 0.999977 0.996082 0.953393 0.950675 0.950393 0.950361 0.950357 0.950358 0.950383 0.95157
        </DataArray>
        <DataArray type="Float32" Name="saturation_nonwetting" NumberOfComponents="1" format="ascii">
          0 0 0 0 0 0 0 0 0 0 0 0
          0 0 0 0 0 0 0 0 0 0 0 0
          0 0 0 0 0 0 0 0 0 0 0 0
          0 0 0 0 0 0 0 0 0 0 0 0
          0 0 0 0 0 0 0 0 0 0 0 0
          0 0 0 0 0 0 0 0 0 0 0 0
          0 0 0 0 0 0 0 0 0 0 0 0
          0 0 0 0 0 0 0 0 0 0 0 0
          0 0 0 0 0 0 0 0 0 0 0 0
          0 0 0 0 0 0 0 0 0 0 0 0
          0 0 0 0 0 0 0 0 0 0 0 0
          0 0 0 0 0 0 0 0 0 0 0 0
          0 0 0 0 0 0 0 0 0 0 0 0
          0 0 0 0 0 0 0 0 0 0 0 0
          0 0 0 0 0 0 0 0 0 0 0 0
          0 0 0 0 5.55112e-15 2.44105e-12 8.45768e-12 1.13897e-11 1.22901e-11 1.24417e-11 1.08882e-11 1.08236e-12
          0 0 0 0 0 0 0 0 0 0 0 0
          0 0 0 0 4.28156e-08 1.02589e-06 1.94309e-06 2.24318e-06 2.30587e-06 2.29221e-06 2.11074e-06 6.21308e-07
          0 0 0 0 0 0 0 0 0 0 0 0
          0 0 0 1.60982e-14 2.47957e-05 0.000130666 0.000182346 0.000196479 0.000199277 0.000198627 0.000190237 0.000100374
          0 0 0 0 0 0 0 0 0 0 0 0
          0 0 0 1.06691e-08 0.000687604 0.0016246 0.00192903 0.00200401 0.00201828 0.00201482 0.0019705 0.00141447
          0 0 0 0 0 0 0 0 0 0 0 0
          0 0 0 1.19834e-05 0.00386538 0.0061767 0.00679347 0.00693381 0.00695921 0.00695266 0.00686921 0.00567883
          0 0 0 0 0 0 0 0 0 0 0 0
          0 0 0 0.000403901 0.010362 0.0140607 0.0148882 0.0150557 0.0150835 0.0150757 0.0149812 0.0132503
          0 0 0 0 0 0 0 0 0 0 0 0
          0 0 9.43809e-11 0.00140523 0.0201313 0.0243746 0.0251574 0.0252945 0.0253147 0.025308 0.0252239 0.0234323
          0 0 0 0 0 0 0 0 0 0 0 0
          0 0 1.00372e-06 0.00276501 0.0323028 0.0362727 0.0368515 0.0369357 0.0369467 0.0369433 0.0368847 0.0352434
          0 0 0 0 0 0 0 0 0 0 0 0
          0 0 2.26454e-05 0.00391798 0.0466074 0.0493254 0.0496069 0.0496388 0.0496426 0.0496424 0.0496168 0.0484304
        </DataArray>
        <DataArray type="Float32" Name="relativePerm_wetting" NumberOfComponents="1" format="ascii">
          1 1 1 1 1 1 1 1 1 1 1 1
          1 1 1 1 1 1 1 1 1 1 1 1
          1 1 1 1 1 1 1 1 1 1 1 1
          1 1 1 1 1 1 1 1 1 1 1 1
          1 1 1 1 1 1 1 1 1 1 1 1
          1 1 1 1 1 1 1 1 1 1 1 1
          1 1 1 1 1 1 1 1 1 1 1 1
          1 1 1 1 1 1 1 1 1 1 1 1
          1 1 1 1 1 1 1 1 1 1 1 1
          1 1 1 1 1 1 1 1 1 1 1 1
          1 1 1 1 1 1 1 1 1 1 1 1
          1 1 1 1 1 1 1 1 1 1 1 1
          1 1 1 1 1 1 1 1 1 1 1 1
          1 1 1 1 1 1 1 1 1 1 1 1
          1 1 1 1 1 1 1 1 1 1 1 1
          1 1 1 1 1 1 1 1 1 1 1 1
          1 1 1 1 1 1 1 1 1 1 1 1
          1 1 1 1 0.999996 0.999953 0.999922 0.999913 0.999911 0.999911 0.999917 0.999968
          1 1 1 1 1 1 1 1 1 1 1 1
          1 1 1 1 0.999416 0.997821 0.997161 0.996988 0.996954 0.996962 0.997064 0.998232
          1 1 1 1 1 1 1 1 1 1 1 1
          1 1 1 0.999999 0.991857 0.983879 0.981524 0.980956 0.980848 0.980874 0.981209 0.985558
          1 1 1 1 1 1 1 1 1 1 1 1
          1 1 1 0.999672 0.967933 0.953536 0.94991 0.949096 0.948949 0.948987 0.94947 0.956521
          1 1 1 1 1 1 1 1 1 1 1 1
          1 1 1 0.994664 0.93016 0.9113 0.907252 0.906439 0.906305 0.906342 0.9068 0.915321
          1 1 1 1 1 1 1 1 1 1 1 1
          1 1 1 0.985633 0.882741 0.864088 0.860744 0.860162 0.860076 0.860104 0.860461 0.868152
          1 1 1 1 1 1 1 1 1 1 1 1
          1 1 0.999954 0.975412 0.831407 0.815915 0.813699 0.813377 0.813335 0.813348 0.813572 0.819882
          1 1 1 1 1 1 1 1 1 1 1 1
          1 1 0.999457 0.967587 0.77779 0.768225 0.767244 0.767133 0.76712 0.767121 0.76721 0.771355
        </DataArray>
        <DataArray type="Float32" Name="relativePerm_nonwetting" NumberOfComponents="1" format="ascii">
          0 0 0 0 0 0 0 0 0 0 0 0
          0 0 0 0 0 0 0 0 0 0 0 0
          0 0 0 0 0 0 0 0 0 0 0 0
          0 0 0 0 0 0 0 0 0 0 0 0
          0 0 0 0 0 0 0 0 0 0 0 0
          0 0 0 0 0 0 0 0 0 0 0 0
          0 0 0 0 0 0 0 0 0 0 0 0
          0 0 0 0 0 0 0 0 0 0 0 0
          0 0 0 0 0 0 0 0 0 0 0 0
          0 0 0 0 0 0 0 0 0 0 0 0
          0 0 0 0 0 0 0 0 0 0 0 0
          0 0 0 0 0 0 0 0 0 0 0 0
          0 0 0 0 0 0 0 0 0 0 0 0
          0 0 0 0 0 0 0 0 0 0 0 0
          0 0 0 0 0 0 0 0 0 0 0 0
          0 0 0 0 5.67274e-30 1.57132e-24 2.03072e-23 3.74838e-23 4.38419e-23 4.49634e-23 3.41642e-23 2.94345e-25
          0 0 0 0 0 0 0 0 0 0 0 0
          0 0 0 0 1.27685e-14 5.46949e-12 1.84995e-11 2.43304e-11 2.56442e-11 2.53552e-11 2.16636e-11 2.10108e-12
          0 0 0 0 0 0 0 0 0 0 0 0
          0 0 0 7.04937e-27 2.38211e-09 5.67514e-08 1.07176e-07 1.23579e-07 1.26959e-07 1.2617e-07 1.16198e-07 3.43128e-08
          0 0 0 0 0 0 0 0 0 0 0 0
          0 0 0 9.01225e-16 1.3483e-06 6.9517e-06 9.64651e-06 1.03742e-05 1.05156e-05 1.04812e-05 1.00459e-05 5.33763e-06
          0 0 0 0 0 0 0 0 0 0 0 0
          0 0 0 5.94959e-10 3.63133e-05 8.87589e-05 0.000106418 0.000110648 0.000111422 0.000111222 0.000108691 7.56185e-05
          0 0 0 0 0 0 0 0 0 0 0 0
          0 0 0 4.88641e-07 0.000237949 0.00042564 0.000474617 0.000484837 0.000486544 0.000486065 0.00048028 0.000380129
          0 0 0 0 0 0 0 0 0 0 0 0
          0 0 1.09056e-19 5.27131e-06 0.000843014 0.00121314 0.00128832 0.00130171 0.0013037 0.00130304 0.00129482 0.00112546
          0 0 0 0 0 0 0 0 0 0 0 0
          0 0 5.24626e-12 1.91687e-05 0.00207249 0.00258318 0.00266205 0.00267362 0.00267513 0.00267467 0.00266661 0.00244569
          0 0 0 0 0 0 0 0 0 0 0 0
          0 0 2.00357e-09 3.72615e-05 0.00415803 0.0046301 0.00468035 0.00468607 0.00468674 0.00468671 0.00468213 0.00447203
        </DataArray>
        <DataArray type="Float32" Name="porosity" NumberOfComponents="1" format="ascii">
          0.4 0.4 0.4 0.4 0.4 0.4 0.4 0.4 0.4 0.4 0.4 0.4
          0.4 0.4 0.4 0.4 0.4 0.4 0.4 0.4 0.4 0.4 0.4 0.4
          0.4 0.4 0.4 0.4 0.4 0.4 0.4 0.4 0.4 0.4 0.4 0.4
          0.4 0.4 0.4 0.4 0.4 0.4 0.4 0.4 0.4 0.4 0.4 0.4
          0.4 0.4 0.4 0.4 0.4 0.4 0.4 0.4 0.4 0.4 0.4 0.4
          0.4 0.4 0.4 0.4 0.4 0.4 0.4 0.4 0.4 0.4 0.4 0.4
          0.4 0.4 0.4 0.4 0.4 0.4 0.4 0.4 0.4 0.4 0.4 0.4
          0.4 0.4 0.4 0.4 0.4 0.4 0.4 0.4 0.4 0.4 0.4 0.4
          0.4 0.4 0.4 0.4 0.4 0.4 0.4 0.4 0.4 0.4 0.4 0.4
          0.4 0.4 0.4 0.4 0.4 0.4 0.4 0.4 0.4 0.4 0.4 0.4
          0.4 0.4 0.4 0.4 0.4 0.4 0.4 0.4 0.4 0.4 0.4 0.4
          0.4 0.4 0.4 0.4 0.4 0.4 0.4 0.4 0.4 0.4 0.4 0.4
          0.4 0.4 0.4 0.4 0.4 0.4 0.4 0.4 0.4 0.4 0.4 0.4
          0.4 0.4 0.4 0.4 0.4 0.4 0.4 0.4 0.4 0.4 0.4 0.4
          0.4 0.4 0.4 0.4 0.4 0.4 0.4 0.4 0.4 0.4 0.4 0.4
          0.4 0.4 0.4 0.4 0.4 0.4 0.4 0.4 0.4 0.4 0.4 0.4
          0.4 0.4 0.4 0.4 0.4 0.4 0.4 0.4 0.4 0.4 0.4 0.4
          0.4 0.4 0.4 0.4 0.4 0.4 0.4 0.4 0.4 0.4 0.4 0.4
          0.4 0.4 0.4 0.4 0.4 0.4 0.4 0.4 0.4 0.4 0.4 0.4
          0.4 0.4 0.4 0.4 0.4 0.4 0.4 0.4 0.4 0.4 0.4 0.4
          0.4 0.4 0.4 0.4 0.4 0.4 0.4 0.4 0.4 0.4 0.4 0.4
          0.4 0.4 0.4 0.4 0.4 0.4 0.4 0.4 0.4 0.4 0.4 0.4
          0.4 0.4 0.4 0.4 0.4 0.4 0.4 0.4 0.4 0.4 0.4 0.4
          0.4 0.4 0.4 0.4 0.4 0.4 0.4 0.4 0.4 0.4 0.4 0.4
          0.4 0.4 0.4 0.4 0.4 0.4 0.4 0.4 0.4 0.4 0.4 0.4
          0.4 0.4 0.4 0.4 0.4 0.4 0.4 0.4 0.4 0.4 0.4 0.4
          0.4 0.4 0.4 0.4 0.4 0.4 0.4 0.4 0.4 0.4 0.4 0.4
          0.4 0.4 0.4 0.4 0.4 0.4 0.4 0.4 0.4 0.4 0.4 0.4
          0.4 0.4 0.4 0.4 0.4 0.4 0.4 0.4 0.4 0.4 0.4 0.4
          0.4 0.4 0.4 0.4 0.4 0.4 0.4 0.4 0.4 0.4 0.4 0.4
          0.4 0.4 0.4 0.4 0.4 0.4 0.4 0.4 0.4 0.4 0.4 0.4
          0.4 0.4 0.4 0.4 0.4 0.4 0.4 0.4 0.4 0.4 0.4 0.4
        </DataArray>
        <DataArray type="Float32" Name="temperature" NumberOfComponents="1" format="ascii">
          293.15 293.15 293.15 293.15 293.15 293.15 293.15 293.15 293.15 293.15 293.15 293.15
          293.15 293.15 293.15 293.15 293.15 293.15 293.15 293.15 293.15 293.15 293.15 293.15
          293.15 293.15 293.15 293.15 293.15 293.15 293.15 293.15 293.15 293.15 293.15 293.15
          293.15 293.15 293.15 293.15 293.15 293.15 293.15 293.15 293.15 293.15 293.15 293.15
          293.15 293.15 293.15 293.15 293.15 293.15 293.15 293.15 293.15 293.15 293.15 293.15
          293.15 293.15 293.15 293.15 293.15 293.15 293.15 293.15 293.15 293.15 293.15 293.15
          293.15 293.15 293.15 293.15 293.15 293.15 293.15 293.15 293.15 293.15 293.15 293.15
          293.15 293.15 293.15 293.15 293.15 293.15 293.15 293.15 293.15 293.15 293.15 293.15
          293.15 293.15 293.15 293.15 293.15 293.15 293.15 293.15 293.15 293.15 293.15 293.15
          293.15 293.15 293.15 293.15 293.15 293.15 293.15 293.15 293.15 293.15 293.15 293.15
          293.15 293.15 293.15 293.15 293.15 293.15 293.15 293.15 293.15 293.15 293.15 293.15
          293.15 293.15 293.15 293.15 293.15 293.15 293.15 293.15 293.15 293.15 293.15 293.15
          293.15 293.15 293.15 293.15 293.15 293.15 293.15 293.15 293.15 293.15 293.15 293.15
          293.15 293.15 293.15 293.15 293.15 293.15 293.15 293.15 293.15 293.15 293.15 293.15
          293.15 293.15 293.15 293.15 293.15 293.15 293.15 293.15 293.15 293.15 293.15 293.15
          293.15 293.15 293.15 293.15 293.15 293.15 293.15 293.15 293.15 293.15 293.15 293.15
          293.15 293.15 293.15 293.15 293.15 293.15 293.15 293.15 293.15 293.15 293.15 293.15
          293.15 293.15 293.15 293.15 293.15 293.15 293.15 293.15 293.15 293.15 293.15 293.15
          293.15 293.15 293.15 293.15 293.15 293.15 293.15 293.15 293.15 293.15 293.15 293.15
          293.15 293.15 293.15 293.15 293.15 293.15 293.15 293.15 293.15 293.15 293.15 293.15
          293.15 293.15 293.15 293.15 293.15 293.15 293.15 293.15 293.15 293.15 293.15 293.15
          293.15 293.15 293.15 293.15 293.15 293.15 293.15 293.15 293.15 293.15 293.15 293.15
          293.15 293.15 293.15 293.15 293.15 293.15 293.15 293.15 293.15 293.15 293.15 293.15
          293.15 293.15 293.15 293.15 293.15 293.15 293.15 293.15 293.15 293.15 293.15 293.15
          293.15 293.15 293.15 293.15 293.15 293.15 293.15 293.15 293.15 293.15 293.15 293.15
          293.15 293.15 293.15 293.15 293.15 293.15 293.15 293.15 293.15 293.15 293.15 293.15
          293.15 293.15 293.15 293.15 293.15 293.15 293.15 293.15 293.15 293.15 293.15 293.15
          293.15 293.15 293.15 293.15 293.15 293.15 293.15 293.15 293.15 293.15 293.15 293.15
          293.15 293.15 293.15 293.15 293.15 293.15 293.15 293.15 293.15 293.15 293.15 293.15
          293.15 293.15 293.15 293.15 293.15 293.15 293.15 293.15 293.15 293.15 293.15 293.15
          293.15 293.15 293.15 293.15 293.15 293.15 293.15 293.15 293.15 293.15 293.15 293.15
          293.15 293.15 293.15 293.15 293.15 293.15 293.15 293.15 293.15 293.15 293.15 293.15
        </DataArray>
      </CellData>
      <Points>
        <DataArray type="Float32" Name="Coordinates" NumberOfComponents="3" format="ascii">
          0 2 0 0.125 2 0 0 2.125 0 0.125 2.125 0
          0.25 2 0 0.25 2.125 0 0.375 2 0 0.375 2.125 0
          0.5 2 0 0.5 2.125 0 0.625 2 0 0.625 2.125 0
          0.75 2 0 0.75 2.125 0 0.875 2 0 0.875 2.125 0
          1 2 0 1 2.125 0 1.125 2 0 1.125 2.125 0
          1.25 2 0 1.25 2.125 0 1.375 2 0 1.375 2.125 0
          1.5 2 0 1.5 2.125 0 1.625 2 0 1.625 2.125 0
          1.75 2 0 1.75 2.125 0 1.875 2 0 1.875 2.125 0
          2 2 0 2 2.125 0 2.125 2 0 2.125 2.125 0
          2.25 2 0 2.25 2.125 0 2.375 2 0 2.375 2.125 0
          2.5 2 0 2.5 2.125 0 2.625 2 0 2.625 2.125 0
          2.75 2 0 2.75 2.125 0 2.875 2 0 2.875 2.125 0
          3 2 0 3 2.125 0 0 2.25 0 0.125 2.25 0
          0.25 2.25 0 0.375 2.25 0 0.5 2.25 0 0.625 2.25 0
          0.75 2.25 0 0.875 2.25 0 1 2.25 0 1.125 2.25 0
          1.25 2.25 0 1.375 2.25 0 1.5 2.25 0 1.625 2.25 0
          1.75 2.25 0 1.875 2.25 0 2 2.25 0 2.125 2.25 0
          2.25 2.25 0 2.375 2.25 0 2.5 2.25 0 2.625 2.25 0
          2.75 2.25 0 2.875 2.25 0 3 2.25 0 0 2.375 0
          0.125 2.375 0 0.25 2.375 0 0.375 2.375 0 0.5 2.375 0
          0.625 2.375 0 0.75 2.375 0 0.875 2.375 0 1 2.375 0
          1.125 2.375 0 1.25 2.375 0 1.375 2.375 0 1.5 2.375 0
          1.625 2.375 0 1.75 2.375 0 1.875 2.375 0 2 2.375 0
          2.125 2.375 0 2.25 2.375 0 2.375 2.375 0 2.5 2.375 0
          2.625 2.375 0 2.75 2.375 0 2.875 2.375 0 3 2.375 0
          0 2.5 0 0.125 2.5 0 0.25 2.5 0 0.375 2.5 0
          0.5 2.5 0 0.625 2.5 0 0.75 2.5 0 0.875 2.5 0
          1 2.5 0 1.125 2.5 0 1.25 2.5 0 1.375 2.5 0
          1.5 2.5 0 1.625 2.5 0 1.75 2.5 0 1.875 2.5 0
          2 2.5 0 2.125 2.5 0 2.25 2.5 0 2.375 2.5 0
          2.5 2.5 0 2.625 2.5 0 2.75 2.5 0 2.875 2.5 0
          3 2.5 0 0 2.625 0 0.125 2.625 0 0.25 2.625 0
          0.375 2.625 0 0.5 2.625 0 0.625 2.625 0 0.75 2.625 0
          0.875 2.625 0 1 2.625 0 1.125 2.625 0 1.25 2.625 0
          1.375 2.625 0 1.5 2.625 0 1.625 2.625 0 1.75 2.625 0
          1.875 2.625 0 2 2.625 0 2.125 2.625 0 2.25 2.625 0
          2.375 2.625 0 2.5 2.625 0 2.625 2.625 0 2.75 2.625 0
          2.875 2.625 0 3 2.625 0 0 2.75 0 0.125 2.75 0
          0.25 2.75 0 0.375 2.75 0 0.5 2.75 0 0.625 2.75 0
          0.75 2.75 0 0.875 2.75 0 1 2.75 0 1.125 2.75 0
          1.25 2.75 0 1.375 2.75 0 1.5 2.75 0 1.625 2.75 0
          1.75 2.75 0 1.875 2.75 0 2 2.75 0 2.125 2.75 0
          2.25 2.75 0 2.375 2.75 0 2.5 2.75 0 2.625 2.75 0
          2.75 2.75 0 2.875 2.75 0 3 2.75 0 0 2.875 0
          0.125 2.875 0 0.25 2.875 0 0.375 2.875 0 0.5 2.875 0
          0.625 2.875 0 0.75 2.875 0 0.875 2.875 0 1 2.875 0
          1.125 2.875 0 1.25 2.875 0 1.375 2.875 0 1.5 2.875 0
          1.625 2.875 0 1.75 2.875 0 1.875 2.875 0 2 2.875 0
          2.125 2.875 0 2.25 2.875 0 2.375 2.875 0 2.5 2.875 0
          2.625 2.875 0 2.75 2.875 0 2.875 2.875 0 3 2.875 0
          0 3 0 0.125 3 0 0.25 3 0 0.375 3 0
          0.5 3 0 0.625 3 0 0.75 3 0 0.875 3 0
          1 3 0 1.125 3 0 1.25 3 0 1.375 3 0
          1.5 3 0 1.625 3 0 1.75 3 0 1.875 3 0
          2 3 0 2.125 3 0 2.25 3 0 2.375 3 0
          2.5 3 0 2.625 3 0 2.75 3 0 2.875 3 0
          3 3 0 0 3.125 0 0.125 3.125 0 0.25 3.125 0
          0.375 3.125 0 0.5 3.125 0 0.625 3.125 0 0.75 3.125 0
          0.875 3.125 0 1 3.125 0 1.125 3.125 0 1.25 3.125 0
          1.375 3.125 0 1.5 3.125 0 1.625 3.125 0 1.75 3.125 0
          1.875 3.125 0 2 3.125 0 2.125 3.125 0 2.25 3.125 0
          2.375 3.125 0 2.5 3.125 0 2.625 3.125 0 2.75 3.125 0
          2.875 3.125 0 3 3.125 0 0 3.25 0 0.125 3.25 0
          0.25 3.25 0 0.375 3.25 0 0.5 3.25 0 0.625 3.25 0
          0.75 3.25 0 0.875 3.25 0 1 3.25 0 1.125 3.25 0
          1.25 3.25 0 1.375 3.25 0 1.5 3.25 0 1.625 3.25 0
          1.75 3.25 0 1.875 3.25 0 2 3.25 0 2.125 3.25 0
          2.25 3.25 0 2.375 3.25 0 2.5 3.25 0 2.625 3.25 0
          2.75 3.25 0 2.875 3.25 0 3 3.25 0 0 3.375 0
          0.125 3.375 0 0.25 3.375 0 0.375 3.375 0 0.5 3.375 0
          0.625 3.375 0 0.75 3.375 0 0.875 3.375 0 1 3.375 0
          1.125 3.375 0 1.25 3.375 0 1.375 3.375 0 1.5 3.375 0
          1.625 3.375 0 1.75 3.375 0 1.875 3.375 0 2 3.375 0
          2.125 3.375 0 2.25 3.375 0 2.375 3.375 0 2.5 3.375 0
          2.625 3.375 0 2.75 3.375 0 2.875 3.375 0 3 3.375 0
          0 3.5 0 0.125 3.5 0 0.25 3.5 0 0.375 3.5 0
          0.5 3.5 0 0.625 3.5 0 0.75 3.5 0 0.875 3.5 0
          1 3.5 0 1.125 3.5 0 1.25 3.5 0 1.375 3.5 0
          1.5 3.5 0 1.625 3.5 0 1.75 3.5 0 1.875 3.5 0
          2 3.5 0 2.125 3.5 0 2.25 3.5 0 2.375 3.5 0
          2.5 3.5 0 2.625 3.5 0 2.75 3.5 0 2.875 3.5 0
          3 3.5 0 0 3.625 0 0.125 3.625 0 0.25 3.625 0
          0.375 3.625 0 0.5 3.625 0 0.625 3.625 0 0.75 3.625 0
          0.875 3.625 0 1 3.625 0 1.125 3.625 0 1.25 3.625 0
          1.375 3.625 0 1.5 3.625 0 1.625 3.625 0 1.75 3.625 0
          1.875 3.625 0 2 3.625 0 2.125 3.625 0 2.25 3.625 0
          2.375 3.625 0 2.5 3.625 0 2.625 3.625 0 2.75 3.625 0
          2.875 3.625 0 3 3.625 0 0 3.75 0 0.125 3.75 0
          0.25 3.75 0 0.375 3.75 0 0.5 3.75 0 0.625 3.75 0
          0.75 3.75 0 0.875 3.75 0 1 3.75 0 1.125 3.75 0
          1.25 3.75 0 1.375 3.75 0 1.5 3.75 0 1.625 3.75 0
          1.75 3.75 0 1.875 3.75 0 2 3.75 0 2.125 3.75 0
          2.25 3.75 0 2.375 3.75 0 2.5 3.75 0 2.625 3.75 0
          2.75 3.75 0 2.875 3.75 0 3 3.75 0 0 3.875 0
          0.125 3.875 0 0.25 3.875 0 0.375 3.875 0 0.5 3.875 0
          0.625 3.875 0 0.75 3.875 0 0.875 3.875 0 1 3.875 0
          1.125 3.875 0 1.25 3.875 0 1.375 3.875 0 1.5 3.875 0
          1.625 3.875 0 1.75 3.875 0 1.875 3.875 0 2 3.875 0
          2.125 3.875 0 2.25 3.875 0 2.375 3.875 0 2.5 3.875 0
          2.625 3.875 0 2.75 3.875 0 2.875 3.875 0 3 3.875 0
          0 4 0 0.125 4 0 0.25 4 0 0.375 4 0
          0.5 4 0 0.625 4 0 0.75 4 0 0.875 4 0
          1 4 0 1.125 4 0 1.25 4 0 1.375 4 0
          1.5 4 0 1.625 4 0 1.75 4 0 1.875 4 0
          2 4 0 2.125 4 0 2.25 4 0 2.375 4 0
          2.5 4 0 2.625 4 0 2.75 4 0 2.875 4 0
          3 4 0
        </DataArray>
      </Points>
      <Cells>
        <DataArray type="Int32" Name="connectivity" NumberOfComponents="1" format="ascii">
          0 1 3 2 1 4 5 3 4 6 7 5