<?xml version="1.0"?>
<VTKFile type="UnstructuredGrid" version="0.1" byte_order="LittleEndian">
  <UnstructuredGrid>
    <Piece NumberOfCells="96" NumberOfPoints="117">
      <CellData Scalars="pressure_l">
        <DataArray type="Float32" Name="pressure_l" NumberOfComponents="1" format="ascii">
          2.63087e+07 2.63089e+07 2.63089e+07 2.63089e+07 2.63087e+07 2.63085e+07 2.63081e+07 2.63076e+07 2.63071e+07 2.63068e+07 2.63068e+07 2.63071e+07
          2.62824e+07 2.62825e+07 2.62825e+07 2.62824e+07 2.62823e+07 2.6282e+07 2.62816e+07 2.6281e+07 2.62802e+07 2.62799e+07 2.62799e+07 2.62803e+07
          2.62561e+07 2.62561e+07 2.62561e+07 2.6256e+07 2.62559e+07 2.62557e+07 2.62553e+07 2.62547e+07 2.62536e+07 2.62534e+07 2.62534e+07 2.62536e+07
          2.62298e+07 2.62298e+07 2.62298e+07 2.62297e+07 2.62296e+07 2.62294e+07 2.62292e+07 2.62287e+07 2.62281e+07 2.62281e+07 2.62281e+07 2.62282e+07
          2.62035e+07 2.62035e+07 2.62035e+07 2.62035e+07 2.62034e+07 2.62033e+07 2.62031e+07 2.62029e+07 2.62026e+07 2.62026e+07 2.62026e+07 2.62026e+07
          2.61773e+07 2.61772e+07 2.61772e+07 2.61772e+07 2.61772e+07 2.61772e+07 2.61772e+07 2.61771e+07 2.6177e+07 2.6177e+07 2.6177e+07 2.61771e+07
          2.6151e+07 2.6151e+07 2.61509e+07 2.6151e+07 2.6151e+07 2.61511e+07 2.61512e+07 2.61514e+07 2.61515e+07 2.61515e+07 2.61515e+07 2.61515e+07
          2.61247e+07 2.61246e+07 2.61246e+07 2.61246e+07 2.61247e+07 2.61249e+07 2.61252e+07 2.61257e+07 2.61259e+07 2.6126e+07 2.6126e+07 2.61259e+07
        </DataArray>
        <DataArray type="Float32" Name="pressure_g" NumberOfComponents="1" format="ascii">
          2.63137e+07 2.63139e+07 2.63139e+07 2.63139e+07 2.63137e+07 2.63135e+07 2.63131e+07 2.63126e+07 2.63121e+07 2.63118e+07 2.63118e+07 2.63121e+07
          2.62874e+07 2.62875e+07 2.62875e+07 2.62874e+07 2.62873e+07 2.6287e+07 2.62866e+07 2.6286e+07 2.62852e+07 2.62849e+07 2.62849e+07 2.62853e+07
          2.62611e+07 2.62611e+07 2.62611e+07 2.6261e+07 2.62609e+07 2.62607e+07 2.62603e+07 2.62597e+07 2.62586e+07 2.62584e+07 2.62584e+07 2.62586e+07
          2.62348e+07 2.62348e+07 2.62348e+07 2.62347e+07 2.62346e+07 2.62344e+07 2.62342e+07 2.62337e+07 2.62331e+07 2.62331e+07 2.62331e+07 2.62332e+07
          2.62085e+07 2.62085e+07 2.62085e+07 2.62085e+07 2.62084e+07 2.62083e+07 2.62081e+07 2.62079e+07 2.62076e+07 2.62076e+07 2.62076e+07 2.62076e+07
          2.61823e+07 2.61822e+07 2.61822e+07 2.61822e+07 2.61822e+07 2.61822e+07 2.61822e+07 2.61821e+07 2.6182e+07 2.6182e+07 2.6182e+07 2.61821e+07
          2.6156e+07 2.6156e+07 2.61559e+07 2.6156e+07 2.6156e+07 2.61561e+07 2.61562e+07 2.61564e+07 2.61565e+07 2.61565e+07 2.61565e+07 2.61565e+07
          2.61297e+07 2.61296e+07 2.61296e+07 2.61296e+07 2.61297e+07 2.61299e+07 2.61302e+07 2.61307e+07 2.61309e+07 2.6131e+07 2.6131e+07 2.61309e+07
        </DataArray>
        <DataArray type="Float32" Name="density_l" NumberOfComponents="1" format="ascii">
          1082.33 1082.33 1082.33 1082.33 1082.33 1082.33 1082.33 1082.33 1082.33 1082.33 1082.33 1082.33
          1082.32 1082.32 1082.32 1082.32 1082.32 1082.32 1082.32 1082.32 1082.32 1082.32 1082.32 1082.32
          1082.31 1082.31 1082.31 1082.31 1082.31 1082.31 1082.31 1082.31 1019.16 1019.16 1019.16 1019.16
          1082.3 1082.3 1082.3 1082.3 1082.3 1082.3 1082.3 1082.3 1019.15 1019.15 1019.15 1019.15
          1082.29 1082.29 1082.29 1082.29 1082.29 1082.29 1082.29 1082.29 1019.14 1019.14 1019.14 1019.14
          1082.28 1082.28 1082.28 1082.28 1082.28 1082.28 1082.28 1082.28 1019.13 1019.13 1019.13 1019.13
          1082.27 1082.27 1082.27 1082.27 1082.27 1082.27 1082.27 1082.27 1019.12 1019.12 1019.12 1019.12
          1082.26 1082.26 1082.26 1082.26 1082.26 1082.26 1082.26 1082.26 1019.11 1019.11 1019.11 1019.11
        </DataArray>
        <DataArray type="Float32" Name="density_g" NumberOfComponents="1" format="ascii">
          969.084 969.084 969.084 969.084 969.084 969.082 969.081 969.079 969.076 969.075 969.075 969.076
          968.965 968.965 968.965 968.965 968.964 968.963 968.961 968.959 968.955 968.953 968.953 968.955
          968.846 968.846 968.846 968.846 968.845 968.844 968.843 968.84 527.831 527.827 527.827 527.831
          968.728 968.728 968.727 968.727 968.727 968.726 968.725 968.722 527.395 527.393 527.393 527.395
          968.609 968.609 968.609 968.609 968.609 968.608 968.607 968.606 526.958 526.957 526.957 526.958
          968.491 968.491 968.49 968.49 968.49 968.49 968.49 968.49 526.521 526.52 526.52 526.521
          968.372 968.372 968.372 968.372 968.372 968.373 968.373 968.374 526.083 526.083 526.084 526.083
          968.254 968.253 968.253 968.253 968.254 968.255 968.256 968.257 525.646 525.647 525.647 525.646
        </DataArray>
        <DataArray type="Float32" Name="saturation_l" NumberOfComponents="1" format="ascii">
          1 1 1 1 1 1 1 1 1 1 1 1
          1 1 1 1 1 1 1 1 1 1 1 1
          1 1 1 1 1 1 1 1 1 1 1 1
          1 1 1 1 1 1 1 1 1 1 1 1
          1 1 1 1 1 1 1 1 1 1 1 1
          1 1 1 1 1 1 1 1 1 1 1 1
          1 1 1 1 1 1 1 1 1 1 1 1
          1 1 1 1 1 1 1 1 1 1 1 1
        </DataArray>
        <DataArray type="Float32" Name="saturation_g" NumberOfComponents="1" format="ascii">
          0 0 0 0 0 0 0 0 0 0 0 0
          0 0 0 0 0 0 0 0 0 0 0 0
          0 0 0 0 0 0 0 0 0 0 0 0
          0 0 0 0 0 0 0 0 0 0 0 0
          0 0 0 0 0 0 0 0 0 0 0 0
          0 0 0 0 0 0 0 0 0 0 0 0
          0 0 0 0 0 0 0 0 0 0 0 0
          0 0 0 0 0 0 0 0 0 0 0 0
        </DataArray>
        <DataArray type="Float32" Name="relativePerm_l" NumberOfComponents="1" format="ascii">
          1 1 1 1 1 1 1 1 1 1 1 1
          1 1 1 1 1 1 1 1 1 1 1 1
          1 1 1 1 1 1 1 1 1 1 1 1
          1 1 1 1 1 1 1 1 1 1 1 1
          1 1 1 1 1 1 1 1 1 1 1 1
          1 1 1 1 1 1 1 1 1 1 1 1
          1 1 1 1 1 1 1 1 1 1 1 1
          1 1 1 1 1 1 1 1 1 1 1 1
        </DataArray>
        <DataArray type="Float32" Name="relativePerm_g" NumberOfComponents="1" format="ascii">
          0 0 0 0 0 0 0 0 0 0 0 0
          0 0 0 0 0 0 0 0 0 0 0 0
          0 0 0 0 0 0 0 0 0 0 0 0
          0 0 0 0 0 0 0 0 0 0 0 0
          0 0 0 0 0 0 0 0 0 0 0 0
          0 0 0 0 0 0 0 0 0 0 0 0
          0 0 0 0 0 0 0 0 0 0 0 0
          0 0 0 0 0 0 0 0 0 0 0 0
        </DataArray>
        <DataArray type="Float32" Name="porosity" NumberOfComponents="1" format="ascii">
          0.3 0.3 0.3 0.3 0.3 0.3 0.3 0.3 0.3 0.3 0.3 0.3
          0.3 0.3 0.3 0.3 0.3 0.3 0.3 0.3 0.3 0.3 0.3 0.3
          0.3 0.3 0.3 0.3 0.3 0.3 0.3 0.3 0.3 0.3 0.3 0.3
          0.3 0.3 0.3 0.3 0.3 0.3 0.3 0.3 0.3 0.3 0.3 0.3
          0.3 0.3 0.3 0.3 0.3 0.3 0.3 0.3 0.3 0.3 0.3 0.3
          0.3 0.3 0.3 0.3 0.3 0.3 0.3 0.3 0.3 0.3 0.3 0.3
          0.3 0.3 0.3 0.3 0.3 0.3 0.3 0.3 0.3 0.3 0.3 0.3
          0.3 0.3 0.3 0.3 0.3 0.3 0.3 0.3 0.3 0.3 0.3 0.3
        </DataArray>
        <DataArray type="Float32" Name="temperature" NumberOfComponents="1" format="ascii">
          293.15 293.15 293.15 293.15 293.15 293.15 293.15 293.15 293.15 293.15 293.15 293.15
          293.15 293.15 293.15 293.15 293.15 293.15 293.15 293.15 293.15 293.15 293.15 293.15
          293.15 293.15 293.15 293.15 293.15 293.15 293.15 293.15 393.149 393.15 393.15 393.149
          293.15 293.15 293.15 293.15 293.15 293.15 293.15 293.15 393.15 393.15 393.15 393.15
          293.15 293.15 293.15 293.15 293.15 293.15 293.15 293.15 393.15 393.15 393.15 393.15
          293.15 293.15 293.15 293.15 293.15 293.15 293.15 293.15 393.15 393.15 393.15 393.15
          293.15 293.15 293.15 293.15 293.15 293.15 293.15 293.15 393.15 393.15 393.15 393.15
          293.15 293.15 293.15 293.15 293.15 293.15 293.15 293.15 393.15 393.15 393.15 393.15
        </DataArray>
        <DataArray type="Float32" Name="moleFrac_l^Brine" NumberOfComponents="1" format="ascii">
          0.995 0.995 0.995 0.995 0.995 0.995 0.995 0.995 0.995 0.995 0.995 0.995
          0.995 0.995 0.995 0.995 0.995 0.995 0.995 0.995 0.995 0.995 0.995 0.995
          0.995 0.995 0.995 0.995 0.995 0.995 0.995 0.995 0.995 0.995 0.995 0.995
          0.995 0.995 0.995 0.995 0.995 0.995 0.995 0.995 0.995 0.995 0.995 0.995
          0.995 0.995 0.995 0.995 0.995 0.995 0.995 0.995 0.995 0.995 0.995 0.995
          0.995 0.995 0.995 0.995 0.995 0.995 0.995 0.995 0.995 0.995 0.995 0.995
          0.995 0.995 0.995 0.995 0.995 0.995 0.995 0.995 0.995 0.995 0.995 0.995
          0.995 0.995 0.995 0.995 0.995 0.995 0.995 0.995 0.995 0.995 0.995 0.995
        </DataArray>
        <DataArray type="Float32" Name="moleFrac_l^CO2" NumberOfComponents="1" format="ascii">
          0.005 0.005 0.005 0.005 0.005 0.005 0.005 0.005 0.005 0.005 0.005 0.005
          0.005 0.005 0.005 0.005 0.005 0.005 0.005 0.005 0.005 0.005 0.005 0.005
          0.005 0.005 0.005 0.005 0.005 0.005 0.005 0.005 0.005 0.005 0.005 0.005
          0.005 0.005 0.005 0.005 0.005 0.005 0.005 0.005 0.005 0.005 0.005 0.005
          0.005 0.005 0.005 0.005 0.005 0.005 0.005 0.005 0.005 0.005 0.005 0.005
          0.005 0.005 0.005 0.005 0.005 0.005 0.005 0.005 0.005 0.005 0.005 0.005
          0.005 0.005 0.005 0.005 0.005 0.005 0.005 0.005 0.005 0.005 0.005 0.005
          0.005 0.005 0.005 0.005 0.005 0.005 0.005 0.005 0.005 0.005 0.005 0.005
        </DataArray>
        <DataArray type="Float32" Name="moleFrac_g^Brine" NumberOfComponents="1" format="ascii">
          0.00327802 0.00327803 0.00327803 0.00327803 0.00327802 0.00327802 0.00327801 0.00327801 0.003278 0.00327799 0.00327799 0.003278
          0.00327762 0.00327762 0.00327762 0.00327762 0.00327762 0.00327761 0.00327761 0.0032776 0.00327759 0.00327759 0.00327759 0.00327759
          0.00327722 0.00327722 0.00327722 0.00327721 0.00327721 0.00327721 0.0032772 0.0032772 0.0297676 0.0297678 0.0297678 0.0297676
          0.00327681 0.00327681 0.00327681 0.00327681 0.00327681 0.00327681 0.0032768 0.0032768 0.0297621 0.0297621 0.0297621 0.0297621
          0.00327641 0.00327641 0.00327641 0.00327641 0.0032764 0.0032764 0.0032764 0.0032764 0.0297563 0.0297564 0.0297564 0.0297563
          0.003276 0.003276 0.003276 0.003276 0.003276 0.003276 0.003276 0.00327601 0.0297505 0.0297506 0.0297506 0.0297505
          0.0032756 0.0032756 0.00327559 0.00327559 0.0032756 0.0032756 0.0032756 0.00327561 0.0297447 0.0297447 0.0297447 0.0297447
          0.00327519 0.00327519 0.00327519 0.00327519 0.00327519 0.00327519 0.0032752 0.00327522 0.0297389 0.0297389 0.0297389 0.0297389
        </DataArray>
        <DataArray type="Float32" Name="moleFrac_g^CO2" NumberOfComponents="1" format="ascii">
          0.259414 0.259414 0.259414 0.259414 0.259414 0.259414 0.259414 0.259415 0.259415 0.259415 0.259415 0.259415
          0.259433 0.259433 0.259433 0.259433 0.259433 0.259433 0.259434 0.259434 0.259435 0.259435 0.259435 0.259435
          0.259452 0.259452 0.259452 0.259452 0.259452 0.259452 0.259453 0.259453 0.301412 0.301413 0.301413 0.301412
          0.259471 0.259471 0.259471 0.259471 0.259471 0.259471 0.259472 0.259472 0.301533 0.301534 0.301534 0.301533
          0.25949 0.25949 0.25949 0.25949 0.25949 0.25949 0.25949 0.259491 0.301655 0.301655 0.301655 0.301655
          0.259509 0.259509 0.259509 0.259509 0.259509 0.259509 0.259509 0.259509 0.301778 0.301778 0.301777 0.301778
          0.259528 0.259528 0.259528 0.259528 0.259528 0.259528 0.259528 0.259528 0.3019 0.3019 0.301899 0.3019
          0.259546 0.259546 0.259546 0.259546 0.259546 0.259546 0.259546 0.259546 0.302022 0.302021 0.302021 0.302022
        </DataArray>
      </CellData>
      <Points>
        <DataArray type="Float32" Name="Coordinates" NumberOfComponents="3" format="ascii">
          0 0 0 2.5 0 0 0 2.5 0 2.5 2.5 0
          5 0 0 5 2.5 0 7.5 0 0 7.5 2.5 0
          10 0 0 10 2.5 0 12.5 0 0 12.5 2.5 0
          15 0 0 15 2.5 0 17.5 0 0 17.5 2.5 0
          20 0 0 20 2.5 0 22.5 0 0 22.5 2.5 0
          25 0 0 25 2.5 0 27.5 0 0 27.5 2.5 0
          30 0 0 30 2.5 0 0 5 0 2.5 5 0
          5 5 0 7.5 5 0 10 5 0 12.5 5 0
          15 5 0 17.5 5 0 20 5 0 22.5 5 0
          25 5 0 27.5 5 0 30 5 0 0 7.5 0
          2.5 7.5 0 5 7.5 0 7.5 7.5 0 10 7.5 0
          12.5 7.5 0 15 7.5 0 17.5 7.5 0 20 7.5 0
          22.5 7.5 0 25 7.5 0 27.5 7.5 0 30 7.5 0
          0 10 0 2.5 10 0 5 10 0 7.5 10 0
          10 10 0 12.5 10 0 15 10 0 17.5 10 0
          20 10 0 22.5 10 0 25 10 0 27.5 10 0
          30 10 0 0 12.5 0 2.5 12.5 0 5 12.5 0
          7.5 12.5 0 10 12.5 0 12.5 12.5 0 15 12.5 0
          17.5 12.5 0 20 12.5 0 22.5 12.5 0 25 12.5 0
          27.5 12.5 0 30 12.5 0 0 15 0 2.5 15 0
          5 15 0 7.5 15 0 10 15 0 12.5 15 0
          15 15 0 17.5 15 0 20 15 0 22.5 15 0
          25 15 0 27.5 15 0 30 15 0 0 17.5 0
          2.5 17.5 0 5 17.5 0 7.5 17.5 0 10 17.5 0
          12.5 17.5 0 15 17.5 0 17.5 17.5 0 20 17.5 0
          22.5 17.5 0 25 17.5 0 27.5 17.5 0 30 17.5 0
          0 20 0 2.5 20 0 5 20 0 7.5 20 0
          10 20 0 12.5 20 0 15 20 0 17.5 20 0
          20 20 0 22.5 20 0 25 20 0 27.5 20 0
          30 20 0
        </DataArray>
      </Points>
      <Cells>
        <DataArray type="Int32" Name="connectivity" NumberOfComponents="1" format="ascii">
          0 1 3 2 1 4 5 3 4 6 7 5
          6 8 9 7 8 10 11 9 10 12 13 11
          12 14 15 13 14 16 17 15 16 18 19 17
          18 20 21 19 20 22 23 21 22 24 25 23
          2 3 27 26 3 5 28 27 5 7 29 28
          7 9 30 29 9 11 31 30 11 13 32 31
          13 15 33 32 15 17 34 33 17 19 35 34
          19 21 36 35 21 23 37 36 23 25 38 37
          26 27 40 39 27 28 41 40 28 29 42 41
          29 30 43 42 30 31 44 43 31 32 45 44
          32 33 46 45 33 34 47 46 34 35 48 47
          35 36 49 48 36 37 50 49 37 38 51 50
          39 40 53 52 40 41 54 53 41 42 55 54
          42 43 56 55 43 44 57 56 44 45 58 57
          45 46 59 58 46 47 60 59 47 48 61 60
          48 49 62 61 49 50 63 62 50 51 64 63
          52 53 66 65 53 54 67 66 54 55 68 67
          55 56 69 68 56 57 70 69 57 58 71 70
          58 59 72 71 59 60 73 72 60 61 74 73
          61 62 75 74 62 63 76 75 63 64 77 76
          65 66 79 78 66 67 80 79 67 68 81 80
          68 69 82 81 69 70 83 82 70 71 84 83
          71 72 85 84 72 73 86 85 73 74 87 86
          74 75 88 87 75 76 89 88 76 77 90 89
          78 79 92 91 79 80 93 92 80 81 94 93
          81 82 95 94 82 83 96 95 83 84 97 96
          84 85 98 97 85 86 99 98 86 87 100 99
          87 88 101 100 88 89 102 101 89 90 103 102
          91 92 105 104 92 93 106 105 93 94 107 106
          94 95 108 107 95 96 109 108 96 97 110 109
          97 98 111 110 98 99 112 111 99 100 113 112
          100 101 114 113 101 102 115 114 102 103 116 115
        </DataArray>
        <DataArray type="Int32" Name="offsets" NumberOfComponents="1" format="ascii">
          4 8 12 16 20 24 28 32 36 40 44 48
          52 56 60 64 68 72 76 80 84 88 92 96
          100 104 108 112 116 120 124 128 132 136 140 144
          148 152 156 160 164 168 172 176 180 184 188 192
          196 200 204 208 212 216 220 224 228 232 236 240
          244 248 252 256 260 264 268 272 276 280 284 288
          292 296 300 304 308 312 316 320 324 328 332 336
          340 344 348 352 356 360 364 368 372 376 380 384
        </DataArray>
        <DataArray type="UInt8" Name="types" NumberOfComponents="1" format="ascii">
          9 9 9 9 9 9 9 9 9 9 9 9
          9 9 9 9 9 9 9 9 9 9 9 9
          9 9 9 9 9 9 9 9 9 9 9 9
          9 9 9 9 9 9 9 9 9 9 9 9
          9 9 9 9 9 9 9 9 9 9 9 9
          9 9 9 9 9 9 9 9 9 9 9 9
          9 9 9 9 9 9 9 9 9 9 9 9
          9 9 9 9 9 9 9 9 9 9 9 9
        </DataArray>
      </Cells>
    </Piece>
  </UnstructuredGrid>
</VTKFile>
