<?xml version="1.0"?>
<VTKFile type="UnstructuredGrid" version="0.1" byte_order="LittleEndian">
  <UnstructuredGrid>
    <Piece NumberOfCells="96" NumberOfPoints="117">
      <CellData Scalars="pressure_l">
        <DataArray type="Float32" Name="pressure_l" NumberOfComponents="1" format="ascii">
          2.60986e+07 2.60986e+07 2.60986e+07 2.60986e+07 2.60986e+07 2.60986e+07 2.60986e+07 2.60986e+07 2.60986e+07 2.60986e+07 2.60986e+07 2.60986e+07
          2.60724e+07 2.60724e+07 2.60724e+07 2.60724e+07 2.60724e+07 2.60724e+07 2.60724e+07 2.60724e+07 2.60724e+07 2.60724e+07 2.60724e+07 2.60724e+07
          2.60462e+07 2.60462e+07 2.60462e+07 2.60462e+07 2.60462e+07 2.60462e+07 2.60462e+07 2.60462e+07 2.60462e+07 2.60462e+07 2.60462e+07 2.60462e+07
          2.602e+07 2.602e+07 2.602e+07 2.602e+07 2.602e+07 2.602e+07 2.602e+07 2.602e+07 2.602e+07 2.602e+07 2.602e+07 2.602e+07
          2.59938e+07 2.59938e+07 2.59938e+07 2.59938e+07 2.59938e+07 2.59938e+07 2.59938e+07 2.59938e+07 2.59938e+07 2.59938e+07 2.59938e+07 2.59938e+07
          2.59675e+07 2.59675e+07 2.59675e+07 2.59675e+07 2.59675e+07 2.59675e+07 2.59675e+07 2.59675e+07 2.59675e+07 2.59675e+07 2.59675e+07 2.59675e+07
          2.59413e+07 2.59413e+07 2.59413e+07 2.59413e+07 2.59413e+07 2.59413e+07 2.59413e+07 2.59413e+07 2.59413e+07 2.59413e+07 2.59413e+07 2.59413e+07
          2.59151e+07 2.59151e+07 2.59151e+07 2.59151e+07 2.59151e+07 2.59151e+07 2.59151e+07 2.59151e+07 2.59151e+07 2.59151e+07 2.59151e+07 2.59151e+07
        </DataArray>
        <DataArray type="Float32" Name="pressure_g" NumberOfComponents="1" format="ascii">
          2.61036e+07 2.61036e+07 2.61036e+07 2.61036e+07 2.61036e+07 2.61036e+07 2.61036e+07 2.61036e+07 2.61036e+07 2.61036e+07 2.61036e+07 2.61036e+07
          2.60824e+07 2.60824e+07 2.60824e+07 2.60824e+07 2.60824e+07 2.60824e+07 2.60824e+07 2.60824e+07 2.60824e+07 2.60824e+07 2.60824e+07 2.60824e+07
          2.60562e+07 2.60562e+07 2.60562e+07 2.60562e+07 2.60562e+07 2.60562e+07 2.60562e+07 2.60562e+07 2.60562e+07 2.60562e+07 2.60562e+07 2.60562e+07
          2.603e+07 2.603e+07 2.603e+07 2.603e+07 2.603e+07 2.603e+07 2.603e+07 2.603e+07 2.603e+07 2.603e+07 2.603e+07 2.603e+07
          2.60038e+07 2.60038e+07 2.60038e+07 2.60038e+07 2.60038e+07 2.60038e+07 2.60038e+07 2.60038e+07 2.60038e+07 2.60038e+07 2.60038e+07 2.60038e+07
          2.59775e+07 2.59775e+07 2.59775e+07 2.59775e+07 2.59775e+07 2.59775e+07 2.59775e+07 2.59775e+07 2.59775e+07 2.59775e+07 2.59775e+07 2.59775e+07
          2.59513e+07 2.59513e+07 2.59513e+07 2.59513e+07 2.59513e+07 2.59513e+07 2.59513e+07 2.59513e+07 2.59513e+07 2.59513e+07 2.59513e+07 2.59513e+07
          2.59251e+07 2.59251e+07 2.59251e+07 2.59251e+07 2.59251e+07 2.59251e+07 2.59251e+07 2.59251e+07 2.59251e+07 2.59251e+07 2.59251e+07 2.59251e+07
        </DataArray>
        <DataArray type="Float32" Name="density_l" NumberOfComponents="1" format="ascii">
          1082.25 1082.25 1082.25 1082.25 1082.25 1082.25 1082.25 1082.25 1019.1 1019.1 1019.1 1019.1
          1082.24 1082.24 1082.24 1082.24 1082.24 1082.24 1082.24 1082.24 1019.09 1019.09 1019.09 1019.09
          1082.22 1082.22 1082.22 1082.22 1082.22 1082.22 1082.22 1082.22 1019.08 1019.08 1019.08 1019.08
          1082.21 1082.21 1082.21 1082.21 1082.21 1082.21 1082.21 1082.21 1019.07 1019.07 1019.07 1019.07
          1082.2 1082.2 1082.2 1082.2 1082.2 1082.2 1082.2 1082.2 1019.06 1019.06 1019.06 1019.06
          1082.19 1082.19 1082.19 1082.19 1082.19 1082.19 1082.19 1082.19 1019.05 1019.05 1019.05 1019.05
          1082.18 1082.18 1082.18 1082.18 1082.18 1082.18 1082.18 1082.18 1082.18 1082.18 1082.18 1082.18
          1082.17 1082.17 1082.17 1082.17 1082.17 1082.17 1082.17 1082.17 1082.17 1082.17 1082.17 1082.17
        </DataArray>
        <DataArray type="Float32" Name="density_g" NumberOfComponents="1" format="ascii">
          968.135 968.135 968.135 968.135 968.135 968.135 968.135 968.135 525.176 525.176 525.176 525.176
          968.039 968.039 968.039 968.039 968.039 968.039 968.039 968.039 524.809 524.809 524.809 524.809
          967.92 967.92 967.92 967.92 967.92 967.92 967.92 967.92 524.356 524.356 524.356 524.356
          967.801 967.801 967.801 967.801 967.801 967.801 967.801 967.801 523.902 523.902 523.902 523.902
          967.682 967.682 967.682 967.682 967.682 967.682 967.682 967.682 523.449 523.449 523.449 523.449
          967.563 967.563 967.563 967.563 967.563 967.563 967.563 967.563 522.995 522.995 522.995 522.995
          967.444 967.444 967.444 967.444 967.444 967.444 967.444 967.444 967.444 967.444 967.444 967.444
          967.324 967.324 967.324 967.324 967.324 967.324 967.324 967.324 967.324 967.324 967.324 967.324
        </DataArray>
        <DataArray type="Float32" Name="saturation_l" NumberOfComponents="1" format="ascii">
          1 1 1 1 1 1 1 1 1 1 1 1
          1 1 1 1 1 1 1 1 1 1 1 1
          1 1 1 1 1 1 1 1 1 1 1 1
          1 1 1 1 1 1 1 1 1 1 1 1
          1 1 1 1 1 1 1 1 1 1 1 1
          1 1 1 1 1 1 1 1 1 1 1 1
          1 1 1 1 1 1 1 1 1 1 1 1
          1 1 1 1 1 1 1 1 1 1 1 1
        </DataArray>
        <DataArray type="Float32" Name="saturation_g" NumberOfComponents="1" format="ascii">
          0 0 0 0 0 0 0 0 0 0 0 0
          0 0 0 0 0 0 0 0 0 0 0 0
          0 0 0 0 0 0 0 0 0 0 0 0
          0 0 0 0 0 0 0 0 0 0 0 0
          0 0 0 0 0 0 0 0 0 0 0 0
          0 0 0 0 0 0 0 0 0 0 0 0
          0 0 0 0 0 0 0 0 0 0 0 0
          0 0 0 0 0 0 0 0 0 0 0 0
        </DataArray>
        <DataArray type="Float32" Name="relativePerm_l" NumberOfComponents="1" format="ascii">
          1 1 1 1 1 1 1 1 1 1 1 1
          1 1 1 1 1 1 1 1 1 1 1 1
          1 1 1 1 1 1 1 1 1 1 1 1
          1 1 1 1 1 1 1 1 1 1 1 1
          1 1 1 1 1 1 1 1 1 1 1 1
          1 1 1 1 1 1 1 1 1 1 1 1
          1 1 1 1 1 1 1 1 1 1 1 1
          1 1 1 1 1 1 1 1 1 1 1 1
        </DataArray>
        <DataArray type="Float32" Name="relativePerm_g" NumberOfComponents="1" format="ascii">
          0 0 0 0 0 0 0 0 0 0 0 0
          0 0 0 0 0 0 0 0 0 0 0 0
          0 0 0 0 0 0 0 0 0 0 0 0
          0 0 0 0 0 0 0 0 0 0 0 0
          0 0 0 0 0 0 0 0 0 0 0 0
          0 0 0 0 0 0 0 0 0 0 0 0
          0 0 0 0 0 0 0 0 0 0 0 0
          0 0 0 0 0 0 0 0 0 0 0 0
        </DataArray>
        <DataArray type="Float32" Name="porosity" NumberOfComponents="1" format="ascii">
          0.3 0.3 0.3 0.3 0.3 0.3 0.3 0.3 0.3 0.3 0.3 0.3
          0.3 0.3 0.3 0.3 0.3 0.3 0.3 0.3 0.3 0.3 0.3 0.3
          0.3 0.3 0.3 0.3 0.3 0.3 0.3 0.3 0.3 0.3 0.3 0.3
          0.3 0.3 0.3 0.3 0.3 0.3 0.3 0.3 0.3 0.3 0.3 0.3
          0.3 0.3 0.3 0.3 0.3 0.3 0.3 0.3 0.3 0.3 0.3 0.3
          0.3 0.3 0.3 0.3 0.3 0.3 0.3 0.3 0.3 0.3 0.3 0.3
          0.3 0.3 0.3 0.3 0.3 0.3 0.3 0.3 0.3 0.3 0.3 0.3
          0.3 0.3 0.3 0.3 0.3 0.3 0.3 0.3 0.3 0.3 0.3 0.3
        </DataArray>
        <DataArray type="Float32" Name="temperature" NumberOfComponents="1" format="ascii">
          293.15 293.15 293.15 293.15 293.15 293.15 293.15 293.15 393.15 393.15 393.15 393.15
          293.15 293.15 293.15 293.15 293.15 293.15 293.15 293.15 393.15 393.15 393.15 393.15
          293.15 293.15 293.15 293.15 293.15 293.15 293.15 293.15 393.15 393.15 393.15 393.15
          293.15 293.15 293.15 293.15 293.15 293.15 293.15 293.15 393.15 393.15 393.15 393.15
          293.15 293.15 293.15 293.15 293.15 293.15 293.15 293.15 393.15 393.15 393.15 393.15
          293.15 293.15 293.15 293.15 293.15 293.15 293.15 293.15 393.15 393.15 393.15 393.15
          293.15 293.15 293.15 293.15 293.15 293.15 293.15 293.15 293.15 293.15 293.15 293.15
          293.15 293.15 293.15 293.15 293.15 293.15 293.15 293.15 293.15 293.15 293.15 293.15
        </DataArray>
        <DataArray type="Float32" Name="moleFrac_l^Brine" NumberOfComponents="1" format="ascii">
          0.995 0.995 0.995 0.995 0.995 0.995 0.995 0.995 0.995 0.995 0.995 0.995
          0.995 0.995 0.995 0.995 0.995 0.995 0.995 0.995 0.995 0.995 0.995 0.995
          0.995 0.995 0.995 0.995 0.995 0.995 0.995 0.995 0.995 0.995 0.995 0.995
          0.995 0.995 0.995 0.995 0.995 0.995 0.995 0.995 0.995 0.995 0.995 0.995
          0.995 0.995 0.995 0.995 0.995 0.995 0.995 0.995 0.995 0.995 0.995 0.995
          0.995 0.995 0.995 0.995 0.995 0.995 0.995 0.995 0.995 0.995 0.995 0.995
          0.995 0.995 0.995 0.995 0.995 0.995 0.995 0.995 0.995 0.995 0.995 0.995
          0.995 0.995 0.995 0.995 0.995 0.995 0.995 0.995 0.995 0.995 0.995 0.995
        </DataArray>
        <DataArray type="Float32" Name="moleFrac_l^CO2" NumberOfComponents="1" format="ascii">
          0.005 0.005 0.005 0.005 0.005 0.005 0.005 0.005 0.005 0.005 0.005 0.005
          0.005 0.005 0.005 0.005 0.005 0.005 0.005 0.005 0.005 0.005 0.005 0.005
          0.005 0.005 0.005 0.005 0.005 0.005 0.005 0.005 0.005 0.005 0.005 0.005
          0.005 0.005 0.005 0.005 0.005 0.005 0.005 0.005 0.005 0.005 0.005 0.005
          0.005 0.005 0.005 0.005 0.005 0.005 0.005 0.005 0.005 0.005 0.005 0.005
          0.005 0.005 0.005 0.005 0.005 0.005 0.005 0.005 0.005 0.005 0.005 0.005
          0.005 0.005 0.005 0.005 0.005 0.005 0.005 0.005 0.005 0.005 0.005 0.005
          0.005 0.005 0.005 0.005 0.005 0.005 0.005 0.005 0.005 0.005 0.005 0.005
        </DataArray>
        <DataArray type="Float32" Name="moleFrac_g^Brine" NumberOfComponents="1" format="ascii">
          0.00327479 0.00327479 0.00327479 0.00327479 0.00327479 0.00327479 0.00327479 0.00327479 0.0297327 0.0297327 0.0297327 0.0297327
          0.00327375 0.00327375 0.00327375 0.00327375 0.00327375 0.00327375 0.00327375 0.00327375 0.0297209 0.0297209 0.0297209 0.0297209
          0.00327335 0.00327335 0.00327335 0.00327335 0.00327335 0.00327335 0.00327335 0.00327335 0.0297149 0.0297149 0.0297149 0.0297149
          0.00327294 0.00327294 0.00327294 0.00327294 0.00327294 0.00327294 0.00327294 0.00327294 0.0297089 0.0297089 0.0297089 0.0297089
          0.00327253 0.00327253 0.00327253 0.00327253 0.00327253 0.00327253 0.00327253 0.00327253 0.0297028 0.0297028 0.0297028 0.0297028
          0.00327213 0.00327213 0.00327213 0.00327213 0.00327213 0.00327213 0.00327213 0.00327213 0.0296968 0.0296968 0.0296968 0.0296968
          0.00327172 0.00327172 0.00327172 0.00327172 0.00327172 0.00327172 0.00327172 0.00327172 0.00327172 0.00327172 0.00327172 0.00327172
          0.00327131 0.00327131 0.00327131 0.00327131 0.00327131 0.00327131 0.00327131 0.00327131 0.00327131 0.00327131 0.00327131 0.00327131
        </DataArray>
        <DataArray type="Float32" Name="moleFrac_g^CO2" NumberOfComponents="1" format="ascii">
          0.259566 0.259566 0.259566 0.259566 0.259566 0.259566 0.259566 0.259566 0.302154 0.302154 0.302154 0.302154
          0.259535 0.259535 0.259535 0.259535 0.259535 0.259535 0.259535 0.259535 0.302224 0.302224 0.302224 0.302224
          0.259554 0.259554 0.259554 0.259554 0.259554 0.259554 0.259554 0.259554 0.302351 0.302351 0.302351 0.302351
          0.259573 0.259573 0.259573 0.259573 0.259573 0.259573 0.259573 0.259573 0.302479 0.302479 0.302479 0.302479
          0.259592 0.259592 0.259592 0.259592 0.259592 0.259592 0.259592 0.259592 0.302606 0.302606 0.302606 0.302606
          0.259611 0.259611 0.259611 0.259611 0.259611 0.259611 0.259611 0.259611 0.302733 0.302733 0.302733 0.302733
          0.25963 0.25963 0.25963 0.25963 0.25963 0.25963 0.25963 0.25963 0.25963 0.25963 0.25963 0.25963
          0.259649 0.259649 0.259649 0.259649 0.259649 0.259649 0.259649 0.259649 0.259649 0.259649 0.259649 0.259649
        </DataArray>
      </CellData>
      <Points>
        <DataArray type="Float32" Name="Coordinates" NumberOfComponents="3" format="ascii">
          0 20 0 2.5 20 0 0 22.5 0 2.5 22.5 0
          5 20 0 5 22.5 0 7.5 20 0 7.5 22.5 0
          10 20 0 10 22.5 0 12.5 20 0 12.5 22.5 0
          15 20 0 15 22.5 0 17.5 20 0 17.5 22.5 0
          20 20 0 20 22.5 0 22.5 20 0 22.5 22.5 0
          25 20 0 25 22.5 0 27.5 20 0 27.5 22.5 0
          30 20 0 30 22.5 0 0 25 0 2.5 25 0
          5 25 0 7.5 25 0 10 25 0 12.5 25 0
          15 25 0 17.5 25 0 20 25 0 22.5 25 0
          25 25 0 27.5 25 0 30 25 0 0 27.5 0
          2.5 27.5 0 5 27.5 0 7.5 27.5 0 10 27.5 0
          12.5 27.5 0 15 27.5 0 17.5 27.5 0 20 27.5 0
          22.5 27.5 0 25 27.5 0 27.5 27.5 0 30 27.5 0
          0 30 0 2.5 30 0 5 30 0 7.5 30 0
          10 30 0 12.5 30 0 15 30 0 17.5 30 0
          20 30 0 22.5 30 0 25 30 0 27.5 30 0
          30 30 0 0 32.5 0 2.5 32.5 0 5 32.5 0
          7.5 32.5 0 10 32.5 0 12.5 32.5 0 15 32.5 0
          17.5 32.5 0 20 32.5 0 22.5 32.5 0 25 32.5 0
          27.5 32.5 0 30 32.5 0 0 35 0 2.5 35 0
          5 35 0 7.5 35 0 10 35 0 12.5 35 0
          15 35 0 17.5 35 0 20 35 0 22.5 35 0
          25 35 0 27.5 35 0 30 35 0 0 37.5 0
          2.5 37.5 0 5 37.5 0 7.5 37.5 0 10 37.5 0
          12.5 37.5 0 15 37.5 0 17.5 37.5 0 20 37.5 0
          22.5 37.5 0 25 37.5 0 27.5 37.5 0 30 37.5 0
          0 40 0 2.5 40 0 5 40 0 7.5 40 0
          10 40 0 12.5 40 0 15 40 0 17.5 40 0
          20 40 0 22.5 40 0 25 40 0 27.5 40 0
          30 40 0
        </DataArray>
      </Points>
      <Cells>
        <DataArray type="Int32" Name="connectivity" NumberOfComponents="1" format="ascii">
          0 1 3 2 1 4 5 3 4 6 7 5
          6 8 9 7 8 10 11 9 10 12 13 11
          12 14 15 13 14 16 17 15 16 18 19 17
          18 20 21 19 20 22 23 21 22 24 25 23
          2 3 27 26 3 5 28 27 5 7 29 28
          7 9 30 29 9 11 31 30 11 13 32 31
          13 15 33 32 15 17 34 33 17 19 35 34
          19 21 36 35 21 23 37 36 23 25 38 37
          26 27 40 39 27 28 41 40 28 29 42 41
          29 30 43 42 30 31 44 43 31 32 45 44
          32 33 46 45 33 34 47 46 34 35 48 47
          35 36 49 48 36 37 50 49 37 38 51 50
          39 40 53 52 40 41 54 53 41 42 55 54
          42 43 56 55 43 44 57 56 44 45 58 57
          45 46 59 58 46 47 60 59 47 48 61 60
          48 49 62 61 49 50 63 62 50 51 64 63
          52 53 66 65 53 54 67 66 54 55 68 67
          55 56 69 68 56 57 70 69 57 58 71 70
          58 59 72 71 59 60 73 72 60 61 74 73
          61 62 75 74 62 63 76 75 63 64 77 76
          65 66 79 78 66 67 80 79 67 68 81 80
          68 69 82 81 69 70 83 82 70 71 84 83
          71 72 85 84 72 73 86 85 73 74 87 86
          74 75 88 87 75 76 89 88 76 77 90 89
          78 79 92 91 79 80 93 92 80 81 94 93
          81 82 95 94 82 83 96 95 83 84 97 96
          84 85 98 97 85 86 99 98 86 87 100 99
          87 88 101 100 88 89 102 101 89 90 103 102
          91 92 105 104 92 93 106 105 93 94 107 106
          94 95 108 107 95 96 109 108 96 97 110 109
          97 98 111 110 98 99 112 111 99 100 113 112
          100 101 114 113 101 102 115 114 102 103 116 115
        </DataArray>
        <DataArray type="Int32" Name="offsets" NumberOfComponents="1" format="ascii">
          4 8 12 16 20 24 28 32 36 40 44 48
          52 56 60 64 68 72 76 80 84 88 92 96
          100 104 108 112 116 120 124 128 132 136 140 144
          148 152 156 160 164 168 172 176 180 184 188 192
          196 200 204 208 212 216 220 224 228 232 236 240
          244 248 252 256 260 264 268 272 276 280 284 288
          292 296 300 304 308 312 316 320 324 328 332 336
          340 344 348 352 356 360 364 368 372 376 380 384
        </DataArray>
        <DataArray type="UInt8" Name="types" NumberOfComponents="1" format="ascii">
          9 9 9 9 9 9 9 9 9 9 9 9
          9 9 9 9 9 9 9 9 9 9 9 9
          9 9 9 9 9 9 9 9 9 9 9 9
          9 9 9 9 9 9 9 9 9 9 9 9
          9 9 9 9 9 9 9 9 9 9 9 9
          9 9 9 9 9 9 9 9 9 9 9 9
          9 9 9 9 9 9 9 9 9 9 9 9
          9 9 9 9 9 9 9 9 9 9 9 9
        </DataArray>
      </Cells>
    </Piece>
  </UnstructuredGrid>
</VTKFile>
