<?xml version="1.0"?>
<VTKFile type="UnstructuredGrid" version="0.1" byte_order="LittleEndian">
  <UnstructuredGrid>
    <Piece NumberOfCells="324" NumberOfPoints="361">
      <PointData Scalars="pressure_gas" Vectors="velocity_gas">
        <DataArray type="Float32" Name="pressure_gas" NumberOfComponents="1" format="ascii">
          100012 100012 100012 100012 100012 100012 100012 100012 100012 100021 100012 100002
          100012 100011 100012 100011 100012 100011 100012 100011 100012 100011 100012 100011
          100012 100011 100012 100002 100012 100021 100012 100012 100012 100012 100012 100012
          100012 100012 100010 100010 100010 100010 100012 100008 100011 100010 100010 100010
          100010 100010 100011 100008 100012 100010 100010 100010 100010 100010 100010 100010
          100010 100019 100001 100010 100009 100009 100009 100009 100009 100010 100001 100019
          100010 100010 100010 100010 100009 100009 100009 100008 100012 100005 100010 100008
          100009 100009 100009 100008 100010 100005 100012 100008 100009 100009 100009 100009
          100009 100009 100009 100018 99998.3 100007 100007 100007 100007 100007 100007 100007
          99998.3 100018 100009 100009 100009 100009 100008 100008 100008 100007 100011 100005
          100009 100008 100008 100008 100008 100008 100009 100005 100011 100007 100008 100008
          100008 100008 100008 100008 100007 100015 99998.7 100006 100006 100006 100006 100006
          100006 100006 99998.7 100015 100007 100008 100008 100008 100006 100006 100007 100006
          100009 100004 100008 100006 100007 100007 100007 100006 100008 100004 100009 100006
          100007 100006 100006 100006 100006 100006 100006 100011 99999.1 100004 100004 100004
          100004 100004 100004 100004 99999.1 100011 100006 100006 100006 100006 100005 100005
          100005 100004 100007 100004 100006 100005 100005 100005 100005 100005 100006 100004
          100007 100004 100005 100005 100005 100005 100005 100005 100005 100008 99999.5 100002
          100003 100003 100003 100003 100003 100002 99999.5 100008 100005 100005 100005 100005
          100004 100004 100004 100003 100004 100003 100004 100004 100004 100004 100004 100004
          100004 100003 100004 100003 100004 100004 100004 100004 100004 100004 100004 100005
          99999.8 100001 100001 100001 100001 100001 100001 100001 99999.8 100005 100004 100004
          100004 100004 100003 100003 100003 100002 100002 100004 100003 100003 100003 100003
          100003 100003 100003 100004 100002 100002 100003 100003 100003 100002 100002 100002
          100003 100004 99997.4 99998.6 99998.9 99999 99999 99999 99998.9 99998.6 99997.4 100004
          100003 100002 100002 100002 100001 100001 100001 100001 100001 100002 100002 100002
          100001 100002 100001 100002 100002 100002 100001 100001 100001 100001 100001 100001
          100001 100001 100001 100002 99996.1 99997.2 99997.5 99997.6 99997.6 99997.6 99997.5 99997.2
          99996.1 100002 100001 100001 100001 100001 100000 100000 100000 100000 100000 100000
          100000 100000 100000 100000 100000 100000 100000 100000 100000 100000 100000 100000
          100000
        </DataArray>
        <DataArray type="Float32" Name="density_gas" NumberOfComponents="1" format="ascii">
          1.23021 1.23021 1.2302 1.2302 1.23021 1.2302 1.23021 1.2302 1.23021 1.2302 1.23021 1.2302
          1.23021 1.2302 1.23021 1.2302 1.23021 1.2302 1.23021 1.2302 1.23021 1.2302 1.23021 1.2302
          1.23021 1.2302 1.23021 1.2302 1.23021 1.2302 1.23021 1.2302 1.23021 1.2302 1.23021 1.2302
          1.23021 1.2302 1.23019 1.23019 1.23019 1.23019 1.23019 1.23019 1.23019 1.23019 1.23019 1.23019
          1.23019 1.23019 1.23019 1.23019 1.23019 1.23019 1.23019 1.23019 1.23019 1.23019 1.23019 1.23019
          1.23019 1.23019 1.23019 1.23019 1.23019 1.23019 1.23019 1.23019 1.23019 1.23019 1.23019 1.23019
          1.23019 1.23019 1.23019 1.23019 1.23018 1.23018 1.23018 1.23018 1.23018 1.23018 1.23018 1.23018
          1.23018 1.23018 1.23018 1.23018 1.23018 1.23018 1.23018 1.23018 1.23018 1.23018 1.23018 1.23017
          1.23017 1.23017 1.23017 1.23017 1.22584 1.22584 1.22584 1.22584 1.22584 1.22584 1.22584 1.22584
          1.22584 1.23017 1.23017 1.23017 1.23017 1.23017 1.23016 1.23016 1.23016 1.23016 1.23016 1.22584
          1.22584 1.22584 1.22584 1.22584 1.22584 1.22584 1.22584 1.22584 1.23016 1.23016 1.23016 1.23016
          1.23016 1.23015 1.23015 1.23015 1.23015 1.23015 1.22583 1.22583 1.22583 1.22583 1.22583 1.22583
          1.22583 1.22583 1.22583 1.23015 1.23015 1.23015 1.23015 1.23015 1.23015 1.23015 1.23015 1.23015
          1.23015 1.22582 1.22582 1.22582 1.22582 1.22582 1.22582 1.22582 1.22582 1.22582 1.23015 1.23015
          1.23015 1.23015 1.23015 1.23014 1.23014 1.23014 1.23014 1.23014 1.22581 1.22581 1.22581 1.22581
          1.22581 1.22581 1.22581 1.22581 1.22581 1.23014 1.23014 1.23014 1.23014 1.23014 1.23013 1.23013
          1.23013 1.23013 1.23013 1.2258 1.2258 1.2258 1.2258 1.2258 1.2258 1.2258 1.2258 1.2258
          1.23013 1.23013 1.23013 1.23013 1.23013 1.23012 1.23012 1.23012 1.23012 1.23012 1.2258 1.2258
          1.2258 1.2258 1.2258 1.2258 1.2258 1.2258 1.2258 1.23012 1.23012 1.23012 1.23012 1.23012
          1.23011 1.23011 1.23011 1.23011 1.23011 1.22579 1.22579 1.22579 1.22579 1.22579 1.22579 1.22579
          1.22579 1.22579 1.23011 1.23011 1.23011 1.23011 1.23011 1.23011 1.23011 1.23011 1.23011 1.23011
          1.22578 1.22578 1.22578 1.22578 1.22578 1.22578 1.22578 1.22578 1.22578 1.23011 1.23011 1.23011
          1.23011 1.23011 1.2301 1.2301 1.2301 1.2301 1.2301 1.2301 1.2301 1.2301 1.2301 1.2301
          1.2301 1.2301 1.2301 1.2301 1.2301 1.2301 1.2301 1.2301 1.2301 1.23009 1.23009 1.23009
          1.23009 1.23009 1.23009 1.23009 1.23009 1.23009 1.23009 1.23009 1.23009 1.23009 1.23009 1.23009
          1.23009 1.23009 1.23009 1.23009 1.23008 1.23008 1.23008 1.23008 1.23008 1.23008 1.23008 1.23008
          1.23008 1.23008 1.23008 1.23008 1.23008 1.23008 1.23008 1.23008 1.23008 1.23008 1.23008 1.23007
          1.23007 1.23007 1.23007 1.23007 1.23007 1.23007 1.23007 1.23007 1.23007 1.23007 1.23007 1.23007
          1.23007 1.23007 1.23007 1.23007 1.23007 1.23007 1.23007 1.23007 1.23007 1.23007 1.23007 1.23007
          1.23007 1.23007 1.23007 1.23007 1.23007 1.23007 1.23007 1.23007 1.23007 1.23007 1.23007 1.23007
          1.23007
        </DataArray>
        <DataArray type="Float32" Name="moleFraction_gas^H2O" NumberOfComponents="1" format="ascii">
          0.0001 0.0001 0.0001 0.0001 0.0001 0.0001 0.0001 0.0001 0.0001 0.0001 0.0001 0.0001
          0.0001 0.0001 0.0001 0.0001 0.0001 0.0001 0.0001 0.0001 0.0001 0.0001 0.0001 0.0001
          0.0001 0.0001 0.0001 0.0001 0.0001 0.0001 0.0001 0.0001 0.0001 0.0001 0.0001 0.0001
          0.0001 0.0001 0.0001 0.0001 0.0001 0.0001 0.0001 0.0001 0.0001 0.0001 0.0001 0.0001
          0.0001 0.0001 0.0001 0.0001 0.0001 0.0001 0.0001 0.0001 0.0001 0.0001 0.0001 0.0001
          0.0001 0.0001 0.0001 0.0001 0.0001 0.0001 0.0001 0.0001 0.0001 0.0001 0.0001 0.0001
          0.0001 0.0001 0.0001 0.0001 0.0001 0.0001 0.0001 0.0001 0.0001 0.0001 0.0001 0.0001
          0.0001 0.0001 0.0001 0.0001 0.0001 0.0001 0.0001 0.0001 0.0001 0.0001 0.0001 0.0001
          0.0001 0.0001 0.0001 0.0001 9e-05 9e-05 9e-05 9e-05 9e-05 9e-05 9e-05 9e-05
          9e-05 0.0001 0.0001 0.0001 0.0001 0.0001 0.0001 0.0001 0.0001 0.0001 0.0001 9e-05
          9e-05 9e-05 9e-05 9e-05 9e-05 9e-05 9e-05 9e-05 0.0001 0.0001 0.0001 0.0001
          0.0001 0.0001 0.0001 0.0001 0.0001 0.0001 9e-05 9e-05 9e-05 9e-05 9e-05 9e-05
          9e-05 9e-05 9e-05 0.0001 0.0001 0.0001 0.0001 0.0001 0.0001 0.0001 0.0001 0.0001
          0.0001 9e-05 9e-05 9e-05 9e-05 9e-05 9e-05 9e-05 9e-05 9e-05 0.0001 0.0001
          0.0001 0.0001 0.0001 0.0001 0.0001 0.0001 0.0001 0.0001 9e-05 9e-05 9e-05 9e-05
          9e-05 9e-05 9e-05 9e-05 9e-05 0.0001 0.0001 0.0001 0.0001 0.0001 0.0001 0.0001
          0.0001 0.0001 0.0001 9e-05 9e-05 9e-05 9e-05 9e-05 9e-05 9e-05 9e-05 9e-05
          0.0001 0.0001 0.0001 0.0001 0.0001 0.0001 0.0001 0.0001 0.0001 0.0001 9e-05 9e-05
          9e-05 9e-05 9e-05 9e-05 9e-05 9e-05 9e-05 0.0001 0.0001 0.0001 0.0001 0.0001
          0.0001 0.0001 0.0001 0.0001 0.0001 9e-05 9e-05 9e-05 9e-05 9e-05 9e-05 9e-05
          9e-05 9e-05 0.0001 0.0001 0.0001 0.0001 0.0001 0.0001 0.0001 0.0001 0.0001 0.0001
          9e-05 9e-05 9e-05 9e-05 9e-05 9e-05 9e-05 9e-05 9e-05 0.0001 0.0001 0.0001
          0.0001 0.0001 0.0001 0.0001 0.0001 0.0001 0.0001 0.0001 0.0001 0.0001 0.0001 0.0001
          0.0001 0.0001 0.0001 0.0001 0.0001 0.0001 0.0001 0.0001 0.0001 0.0001 0.0001 0.0001
          0.0001 0.0001 0.0001 0.0001 0.0001 0.0001 0.0001 0.0001 0.0001 0.0001 0.0001 0.0001
          0.0001 0.0001 0.0001 0.0001 0.0001 0.0001 0.0001 0.0001 0.0001 0.0001 0.0001 0.0001
          0.0001 0.0001 0.0001 0.0001 0.0001 0.0001 0.0001 0.0001 0.0001 0.0001 0.0001 0.0001
          0.0001 0.0001 0.0001 0.0001 0.0001 0.0001 0.0001 0.0001 0.0001 0.0001 0.0001 0.0001
          0.0001 0.0001 0.0001 0.0001 0.0001 0.0001 0.0001 0.0001 0.0001 0.0001 0.0001 0.0001
          0.0001 0.0001 0.0001 0.0001 0.0001 0.0001 0.0001 0.0001 0.0001 0.0001 0.0001 0.0001
          0.0001
        </DataArray>
        <DataArray type="Float32" Name="moleFraction_gas^Air" NumberOfComponents="1" format="ascii">
          0.9999 0.9999 0.9999 0.9999 0.9999 0.9999 0.9999 0.9999 0.9999 0.9999 0.9999 0.9999
          0.9999 0.9999 0.9999 0.9999 0.9999 0.9999 0.9999 0.9999 0.9999 0.9999 0.9999 0.9999
          0.9999 0.9999 0.9999 0.9999 0.9999 0.9999 0.9999 0.9999 0.9999 0.9999 0.9999 0.9999
          0.9999 0.9999 0.9999 0.9999 0.9999 0.9999 0.9999 0.9999 0.9999 0.9999 0.9999 0.9999
          0.9999 0.9999 0.9999 0.9999 0.9999 0.9999 0.9999 0.9999 0.9999 0.9999 0.9999 0.9999
          0.9999 0.9999 0.9999 0.9999 0.9999 0.9999 0.9999 0.9999 0.9999 0.9999 0.9999 0.9999
          0.9999 0.9999 0.9999 0.9999 0.9999 0.9999 0.9999 0.9999 0.9999 0.9999 0.9999 0.9999
          0.9999 0.9999 0.9999 0.9999 0.9999 0.9999 0.9999 0.9999 0.9999 0.9999 0.9999 0.9999
          0.9999 0.9999 0.9999 0.9999 0.99991 0.99991 0.99991 0.99991 0.99991 0.99991 0.99991 0.99991
          0.99991 0.9999 0.9999 0.9999 0.9999 0.9999 0.9999 0.9999 0.9999 0.9999 0.9999 0.99991
          0.99991 0.99991 0.99991 0.99991 0.99991 0.99991 0.99991 0.99991 0.9999 0.9999 0.9999 0.9999
          0.9999 0.9999 0.9999 0.9999 0.9999 0.9999 0.99991 0.99991 0.99991 0.99991 0.99991 0.99991
          0.99991 0.99991 0.99991 0.9999 0.9999 0.9999 0.9999 0.9999 0.9999 0.9999 0.9999 0.9999
          0.9999 0.99991 0.99991 0.99991 0.99991 0.99991 0.99991 0.99991 0.99991 0.99991 0.9999 0.9999
          0.9999 0.9999 0.9999 0.9999 0.9999 0.9999 0.9999 0.9999 0.99991 0.99991 0.99991 0.99991
          0.99991 0.99991 0.99991 0.99991 0.99991 0.9999 0.9999 0.9999 0.9999 0.9999 0.9999 0.9999
          0.9999 0.9999 0.9999 0.99991 0.99991 0.99991 0.99991 0.99991 0.99991 0.99991 0.99991 0.99991
          0.9999 0.9999 0.9999 0.9999 0.9999 0.9999 0.9999 0.9999 0.9999 0.9999 0.99991 0.99991
          0.99991 0.99991 0.99991 0.99991 0.99991 0.99991 0.99991 0.9999 0.9999 0.9999 0.9999 0.9999
          0.9999 0.9999 0.9999 0.9999 0.9999 0.99991 0.99991 0.99991 0.99991 0.99991 0.99991 0.99991
          0.99991 0.99991 0.9999 0.9999 0.9999 0.9999 0.9999 0.9999 0.9999 0.9999 0.9999 0.9999
          0.99991 0.99991 0.99991 0.99991 0.99991 0.99991 0.99991 0.99991 0.99991 0.9999 0.9999 0.9999
          0.9999 0.9999 0.9999 0.9999 0.9999 0.9999 0.9999 0.9999 0.9999 0.9999 0.9999 0.9999
          0.9999 0.9999 0.9999 0.9999 0.9999 0.9999 0.9999 0.9999 0.9999 0.9999 0.9999 0.9999
          0.9999 0.9999 0.9999 0.9999 0.9999 0.9999 0.9999 0.9999 0.9999 0.9999 0.9999 0.9999
          0.9999 0.9999 0.9999 0.9999 0.9999 0.9999 0.9999 0.9999 0.9999 0.9999 0.9999 0.9999
          0.9999 0.9999 0.9999 0.9999 0.9999 0.9999 0.9999 0.9999 0.9999 0.9999 0.9999 0.9999
          0.9999 0.9999 0.9999 0.9999 0.9999 0.9999 0.9999 0.9999 0.9999 0.9999 0.9999 0.9999
          0.9999 0.9999 0.9999 0.9999 0.9999 0.9999 0.9999 0.9999 0.9999 0.9999 0.9999 0.9999
          0.9999 0.9999 0.9999 0.9999 0.9999 0.9999 0.9999 0.9999 0.9999 0.9999 0.9999 0.9999
          0.9999
        </DataArray>
        <DataArray type="Float32" Name="temperature_gas" NumberOfComponents="1" format="ascii">
          283.15 283.15 283.152 283.152 283.15 283.152 283.15 283.152 283.15 283.177 283.15 283.124
          283.15 283.15 283.15 283.15 283.15 283.149 283.15 283.149 283.15 283.149 283.15 283.15
          283.15 283.15 283.15 283.124 283.15 283.177 283.15 283.152 283.15 283.152 283.15 283.152
          283.15 283.152 283.15 283.15 283.15 283.148 283.155 283.144 283.151 283.149 283.149 283.149
          283.149 283.149 283.151 283.144 283.155 283.148 283.15 283.15 283.15 283.152 283.152 283.152
          283.151 283.177 283.124 283.15 283.149 283.149 283.149 283.149 283.149 283.15 283.124 283.177
          283.151 283.152 283.152 283.152 283.15 283.15 283.151 283.147 283.16 283.139 283.152 283.148
          283.149 283.149 283.149 283.148 283.152 283.139 283.16 283.147 283.151 283.15 283.15 283.152
          283.152 283.152 283.151 283.176 284.121 284.147 284.146 284.146 284.146 284.146 284.146 284.147
          284.121 283.176 283.151 283.152 283.152 283.152 283.15 283.15 283.151 283.147 283.158 284.143
          284.154 284.15 284.151 284.151 284.151 284.15 284.154 284.143 283.158 283.147 283.151 283.15
          283.15 283.152 283.151 283.152 283.151 283.171 284.126 284.146 284.145 284.146 284.146 284.146
          284.145 284.146 284.126 283.171 283.151 283.152 283.151 283.152 283.15 283.15 283.15 283.147
          283.156 284.144 284.153 284.15 284.15 284.15 284.15 284.15 284.153 284.144 283.156 283.147
          283.15 283.15 283.15 283.151 283.151 283.152 283.151 283.166 284.131 284.145 284.145 284.145
          284.145 284.145 284.145 284.145 284.131 283.166 283.151 283.152 283.151 283.151 283.15 283.15
          283.15 283.148 283.154 284.146 284.152 284.149 284.15 284.15 284.15 284.149 284.152 284.146
          283.154 283.148 283.15 283.15 283.15 283.151 283.151 283.151 283.152 283.16 284.136 284.144
          284.145 284.145 284.145 284.145 284.145 284.144 284.136 283.16 283.152 283.151 283.151 283.151
          283.15 283.15 283.15 283.149 283.151 284.148 284.15 284.149 284.149 284.149 284.149 284.149
          284.15 284.148 283.151 283.149 283.15 283.15 283.15 283.151 283.151 283.151 283.152 283.155
          284.14 284.143 284.144 284.144 284.144 284.144 284.144 284.143 284.14 283.155 283.152 283.151
          283.151 283.151 283.15 283.15 283.15 283.15 283.148 283.154 283.151 283.151 283.151 283.151
          283.151 283.151 283.151 283.154 283.148 283.15 283.15 283.15 283.15 283.151 283.151 283.151
          283.152 283.155 283.137 283.14 283.141 283.142 283.142 283.142 283.141 283.14 283.137 283.155
          283.152 283.151 283.151 283.151 283.15 283.15 283.15 283.15 283.149 283.152 283.151 283.151
          283.151 283.151 283.151 283.151 283.151 283.152 283.149 283.15 283.15 283.15 283.15 283.151
          283.151 283.151 283.152 283.155 283.137 283.14 283.141 283.141 283.141 283.141 283.141 283.14
          283.137 283.155 283.152 283.151 283.151 283.151 283.15 283.15 283.15 283.15 283.15 283.15
          283.15 283.15 283.15 283.15 283.15 283.15 283.15 283.15 283.15 283.15 283.15 283.15
          283.15
        </DataArray>
        <DataArray type="Float32" Name="viscosity_gas" NumberOfComponents="1" format="ascii">
          1.75174e-05 1.75174e-05 1.75175e-05 1.75175e-05 1.75174e-05 1.75175e-05 1.75174e-05 1.75175e-05 1.75174e-05 1.75187e-05 1.75174e-05 1.75162e-05
          1.75174e-05 1.75174e-05 1.75174e-05 1.75174e-05 1.75174e-05 1.75174e-05 1.75174e-05 1.75174e-05 1.75174e-05 1.75174e-05 1.75174e-05 1.75174e-05
          1.75174e-05 1.75174e-05 1.75174e-05 1.75162e-05 1.75174e-05 1.75187e-05 1.75174e-05 1.75175e-05 1.75174e-05 1.75175e-05 1.75174e-05 1.75175e-05
          1.75174e-05 1.75175e-05 1.75174e-05 1.75174e-05 1.75174e-05 1.75173e-05 1.75177e-05 1.75171e-05 1.75175e-05 1.75174e-05 1.75174e-05 1.75174e-05
          1.75174e-05 1.75174e-05 1.75175e-05 1.75171e-05 1.75177e-05 1.75173e-05 1.75174e-05 1.75174e-05 1.75174e-05 1.75175e-05 1.75175e-05 1.75175e-05
          1.75175e-05 1.75187e-05 1.75162e-05 1.75174e-05 1.75174e-05 1.75174e-05 1.75174e-05 1.75174e-05 1.75174e-05 1.75174e-05 1.75162e-05 1.75187e-05
          1.75175e-05 1.75175e-05 1.75175e-05 1.75175e-05 1.75174e-05 1.75174e-05 1.75175e-05 1.75173e-05 1.75179e-05 1.75169e-05 1.75175e-05 1.75173e-05
          1.75174e-05 1.75174e-05 1.75174e-05 1.75173e-05 1.75175e-05 1.75169e-05 1.75179e-05 1.75173e-05 1.75175e-05 1.75174e-05 1.75174e-05 1.75175e-05
          1.75175e-05 1.75175e-05 1.75175e-05 1.75187e-05 1.75647e-05 1.75659e-05 1.75659e-05 1.75659e-05 1.75659e-05 1.75659e-05 1.75659e-05 1.75659e-05
          1.75647e-05 1.75187e-05 1.75175e-05 1.75175e-05 1.75175e-05 1.75175e-05 1.75174e-05 1.75174e-05 1.75175e-05 1.75173e-05 1.75178e-05 1.75657e-05
          1.75662e-05 1.75661e-05 1.75661e-05 1.75661e-05 1.75661e-05 1.75661e-05 1.75662e-05 1.75657e-05 1.75178e-05 1.75173e-05 1.75175e-05 1.75174e-05
          1.75174e-05 1.75175e-05 1.75175e-05 1.75175e-05 1.75175e-05 1.75184e-05 1.75649e-05 1.75659e-05 1.75658e-05 1.75658e-05 1.75658e-05 1.75658e-05
          1.75658e-05 1.75659e-05 1.75649e-05 1.75184e-05 1.75175e-05 1.75175e-05 1.75175e-05 1.75175e-05 1.75174e-05 1.75174e-05 1.75174e-05 1.75173e-05
          1.75177e-05 1.75658e-05 1.75662e-05 1.7566e-05 1.75661e-05 1.75661e-05 1.75661e-05 1.7566e-05 1.75662e-05 1.75658e-05 1.75177e-05 1.75173e-05
          1.75174e-05 1.75174e-05 1.75174e-05 1.75175e-05 1.75175e-05 1.75175e-05 1.75175e-05 1.75182e-05 1.75651e-05 1.75658e-05 1.75658e-05 1.75658e-05
          1.75658e-05 1.75658e-05 1.75658e-05 1.75658e-05 1.75651e-05 1.75182e-05 1.75175e-05 1.75175e-05 1.75175e-05 1.75175e-05 1.75174e-05 1.75174e-05
          1.75174e-05 1.75173e-05 1.75176e-05 1.75659e-05 1.75661e-05 1.7566e-05 1.7566e-05 1.7566e-05 1.7566e-05 1.7566e-05 1.75661e-05 1.75659e-05
          1.75176e-05 1.75173e-05 1.75174e-05 1.75174e-05 1.75174e-05 1.75175e-05 1.75175e-05 1.75175e-05 1.75175e-05 1.75179e-05 1.75654e-05 1.75658e-05
          1.75658e-05 1.75658e-05 1.75658e-05 1.75658e-05 1.75658e-05 1.75658e-05 1.75654e-05 1.75179e-05 1.75175e-05 1.75175e-05 1.75175e-05 1.75175e-05
          1.75174e-05 1.75174e-05 1.75174e-05 1.75174e-05 1.75175e-05 1.7566e-05 1.75661e-05 1.7566e-05 1.7566e-05 1.7566e-05 1.7566e-05 1.7566e-05
          1.75661e-05 1.7566e-05 1.75175e-05 1.75174e-05 1.75174e-05 1.75174e-05 1.75174e-05 1.75175e-05 1.75175e-05 1.75175e-05 1.75175e-05 1.75177e-05
          1.75656e-05 1.75657e-05 1.75658e-05 1.75658e-05 1.75658e-05 1.75658e-05 1.75658e-05 1.75657e-05 1.75656e-05 1.75177e-05 1.75175e-05 1.75175e-05
          1.75175e-05 1.75175e-05 1.75174e-05 1.75174e-05 1.75174e-05 1.75174e-05 1.75173e-05 1.75176e-05 1.75175e-05 1.75175e-05 1.75175e-05 1.75175e-05
          1.75175e-05 1.75175e-05 1.75175e-05 1.75176e-05 1.75173e-05 1.75174e-05 1.75174e-05 1.75174e-05 1.75174e-05 1.75175e-05 1.75175e-05 1.75175e-05
          1.75175e-05 1.75177e-05 1.75168e-05 1.7517e-05 1.7517e-05 1.7517e-05 1.7517e-05 1.7517e-05 1.7517e-05 1.7517e-05 1.75168e-05 1.75177e-05
          1.75175e-05 1.75175e-05 1.75175e-05 1.75175e-05 1.75174e-05 1.75174e-05 1.75174e-05 1.75174e-05 1.75174e-05 1.75175e-05 1.75175e-05 1.75175e-05
          1.75174e-05 1.75174e-05 1.75174e-05 1.75175e-05 1.75175e-05 1.75175e-05 1.75174e-05 1.75174e-05 1.75174e-05 1.75174e-05 1.75174e-05 1.75175e-05
          1.75175e-05 1.75175e-05 1.75175e-05 1.75177e-05 1.75168e-05 1.75169e-05 1.7517e-05 1.7517e-05 1.7517e-05 1.7517e-05 1.7517e-05 1.75169e-05
          1.75168e-05 1.75177e-05 1.75175e-05 1.75175e-05 1.75175e-05 1.75175e-05 1.75174e-05 1.75174e-05 1.75174e-05 1.75174e-05 1.75174e-05 1.75174e-05
          1.75174e-05 1.75174e-05 1.75174e-05 1.75174e-05 1.75174e-05 1.75174e-05 1.75174e-05 1.75174e-05 1.75174e-05 1.75174e-05 1.75174e-05 1.75174e-05
          1.75174e-05
        </DataArray>
        <DataArray type="Float32" Name="velocity_gas" NumberOfComponents="3" format="ascii">
          0 283.15 0 0 283.15 0 1.76649 283.152 0 -1.00273 283.152 0
          0 283.15 0 -15.2883 283.152 0 0 283.15 0 152.668 283.152 0
          0 283.15 0 -145.187 283.177 0 0 283.15 0 -145.192 283.124 0
          0 283.15 0 152.674 283.15 0 0 283.15 0 -15.3189 283.15 0
          0 283.15 0 -0.757377 283.149 0 0 283.15 0 1.5539e-06 283.149 0
          0 283.15 0 0.757379 283.149 0 0 283.15 0 15.3189 283.15 0
          0 283.15 0 -152.674 283.15 0 0 283.15 0 145.192 283.124 0
          0 283.15 0 145.187 283.177 0 0 283.15 0 -152.668 283.152 0
          0 283.15 0 15.2883 283.152 0 0 283.15 0 1.00272 283.152 0
          0 283.15 0 -1.76648 283.152 0 -0.352171 283.15 0 3.16329 283.15 0
          -17.0481 283.15 0 54.7835 283.148 0 -42.7984 283.155 0 -42.7984 283.144 0
          54.7812 283.151 0 -17.0412 283.149 0 3.11806 283.149 0 -4.99531e-07 283.149 0
          -3.11806 283.149 0 17.0412 283.149 0 -54.7812 283.151 0 42.7984 283.144 0
          42.7984 283.155 0 -54.7835 283.148 0 17.0481 283.15 0 -3.16329 283.15 0
          0.35217 283.15 0 0.541831 283.152 0 1.19114 283.152 0 -21.0618 283.152 0
          162.108 283.151 0 -150.874 283.177 0 -150.893 283.124 0 162.121 283.15 0
          -21.0653 283.149 0 1.25616 283.149 0 5.17464e-07 283.149 0 -1.25616 283.149 0
          21.0653 283.149 0 -162.121 283.15 0 150.893 283.124 0 150.874 283.177 0
          -162.108 283.151 0 21.0618 283.152 0 -1.19114 283.152 0 -0.541828 283.152 0
          -1.31463 283.15 0 6.40671 283.15 0 -31.8475 283.151 0 101.043 283.147 0
          -79.4871 283.16 0 -79.3859 283.139 0 100.958 283.152 0 -31.8105 283.148 0
          6.20676 283.149 0 -3.45928e-06 283.149 0 -6.20676 283.149 0 31.8105 283.148 0
          -100.958 283.152 0 79.3859 283.139 0 79.487 283.16 0 -101.043 283.147 0
          31.8475 283.151 0 -6.40671 283.15 0 1.31463 283.15 0 -1.53598 283.152 0
          4.94929 283.152 0 -32.2083 283.152 0 186.78 283.151 0 -187.45 283.176 0
          -188.289 284.121 0 187.405 284.147 0 -32.2506 284.146 0 4.74002 284.146 0
          -1.97328e-06 284.146 0 -4.74001 284.146 0 32.2506 284.146 0 -187.405 284.147 0
          188.289 284.121 0 187.45 283.176 0 -186.78 283.151 0 32.2083 283.152 0
          -4.94929 283.152 0 1.53598 283.152 0 -1.46711 283.15 0 6.56677 283.15 0
          -31.4285 283.151 0 91.5636 283.147 0 -55.1418 283.158 0 -55.421 284.143 0
          91.879 284.154 0 -31.4848 284.15 0 6.35213 284.151 0 -4.00553e-06 284.151 0
          -6.35213 284.151 0 31.4848 284.15 0 -91.879 284.154 0 55.421 284.143 0
          55.1418 283.158 0 -91.5636 283.147 0 31.4285 283.151 0 -6.56677 283.15 0
          1.4671 283.15 0 -1.92729 283.152 0 5.01227 283.151 0 -27.0263 283.152 0
          152.723 283.151 0 -157.421 283.171 0 -158.072 284.126 0 153.184 284.146 0
          -27.0396 284.145 0 4.73911 284.146 0 -4.29111e-06 284.146 0 -4.73911 284.146 0
          27.0397 284.145 0 -153.184 284.146 0 158.072 284.126 0 157.421 283.171 0
          -152.723 283.151 0 27.0263 283.152 0 -5.01227 283.151 0 1.92729 283.152 0
          -1.65655 283.15 0 6.149 283.15 0 -28.5569 283.15 0 79.1362 283.147 0
          -49.3701 283.156 0 -49.6168 284.144 0 79.4071 284.153 0 -28.6012 284.15 0
          5.91262 284.15 0 -4.3194e-06 284.15 0 -5.91261 284.15 0 28.6012 284.15 0
          -79.4071 284.153 0 49.6168 284.144 0 49.3701 283.156 0 -79.1363 283.147 0
          28.5569 283.15 0 -6.149 283.15 0 1.65655 283.15 0 -2.00779 283.151 0
          4.50607 283.151 0 -20.4016 283.152 0 116.034 283.151 0 -126.554 283.166 0
          -127.08 284.131 0 116.382 284.145 0 -20.4003 284.145 0 4.22065 284.145 0
          -3.80898e-06 284.145 0 -4.22064 284.145 0 20.4003 284.145 0 -116.382 284.145 0
          127.08 284.131 0 126.554 283.166 0 -116.034 283.151 0 20.4016 283.152 0
          -4.50607 283.151 0 2.00779 283.151 0 -1.55271 283.15 0 4.8965 283.15 0
          -22.1387 283.15 0 57.422 283.148 0 -37.2608 283.154 0 -37.4441 284.146 0
          57.6154 284.152 0 -22.1678 284.149 0 4.67926 284.15 0 -3.13783e-06 284.15 0
          -4.67925 284.15 0 22.1678 284.149 0 -57.6154 284.152 0 37.4441 284.146 0
          37.2608 283.154 0 -57.422 283.148 0 22.1387 283.15 0 -4.8965 283.15 0
          1.55271 283.15 0 -1.55718 283.151 0 3.06306 283.151 0 -11.3074 283.151 0
          74.8583 283.152 0 -93.3805 283.16 0 -93.7699 284.136 0 75.0813 284.144 0
          -11.2969 284.145 0 2.84658 284.145 0 -4.59287e-06 284.145 0 -2.84658 284.145 0
          11.2969 284.145 0 -75.0813 284.144 0 93.7699 284.136 0 93.3805 283.16 0
          -74.8583 283.152 0 11.3074 283.151 0 -3.06306 283.151 0 1.55718 283.151 0
          -0.84853 283.15 0 2.65593 283.15 0 -12.1617 283.15 0 26.8341 283.149 0
          -19.2804 283.151 0 -19.3816 284.148 0 26.9275 284.15 0 -12.1795 284.149 0
          2.54219 284.149 0 -3.82344e-06 284.149 0 -2.54219 284.149 0 12.1795 284.149 0
          -26.9276 284.15 0 19.3816 284.148 0 19.2804 283.151 0 -26.8341 283.149 0
          12.1617 283.15 0 -2.65593 283.15 0 0.848532 283.15 0 -0.433772 283.151 0
          0.542267 283.151 0 0.768438 283.151 0 28.0448 283.152 0 -56.8064 283.155 0
          -57.0333 284.14 0 28.1209 284.143 0 0.783421 284.144 0 0.4893 284.144 0
          -2.06659e-06 284.144 0 -0.489296 284.144 0 -0.783413 284.144 0 -28.121 284.143 0
          57.0333 284.14 0 56.8064 283.155 0 -28.0448 283.152 0 -0.768436 283.151 0
          -0.542268 283.151 0 0.433773 283.151 0 0.539075 283.15 0 -0.66239 283.15 0
          2.249 283.15 0 -18.7374 283.15 0 29.4075 283.148 0 29.4379 283.154 0
          -18.744 283.151 0 2.23863 283.151 0 -0.597453 283.151 0 -2.82621e-06 283.151 0
          0.597454 283.151 0 -2.23862 283.151 0 18.744 283.151 0 -29.4379 283.154 0
          -29.4075 283.148 0 18.7374 283.15 0 -2.249 283.15 0 0.66239 283.15 0
          -0.539074 283.15 0 -0.25761 283.151 0 0.558587 283.151 0 0.376949 283.151 0
          30.4587 283.152 0 -77.4495 283.155 0 -77.4555 283.137 0 30.4576 283.14 0
          0.380832 283.141 0 0.529631 283.142 0 -2.88566e-06 283.142 0 -0.529626 283.142 0
          -0.380824 283.141 0 -30.4576 283.14 0 77.4555 283.137 0 77.4495 283.155 0
          -30.4587 283.152 0 -0.376947 283.151 0 -0.558587 283.151 0 0.25761 283.151 0
          0.277617 283.15 0 -0.308565 283.15 0 0.790311 283.15 0 -7.78736 283.15 0
          12.6955 283.149 0 12.6966 283.152 0 -7.78636 283.151 0 0.785282 283.151 0
          -0.271962 283.151 0 4.02743e-07 283.151 0 0.271962 283.151 0 -0.78528 283.151 0
          7.78636 283.151 0 -12.6966 283.152 0 -12.6955 283.149 0 7.78736 283.15 0
          -0.79031 283.15 0 0.308564 283.15 0 -0.277616 283.15 0 -0.147219 283.151 0
          0.575001 283.151 0 0.397696 283.151 0 29.26 283.152 0 -76.0206 283.155 0
          -76.0224 283.137 0 29.2578 283.14 0 0.401475 283.141 0 0.552293 283.141 0
          -2.0979e-06 283.141 0 -0.552286 283.141 0 -0.401469 283.141 0 -29.2578 283.14 0
          76.0224 283.137 0 76.0206 283.155 0 -29.26 283.152 0 -0.397694 283.151 0
          -0.575002 283.151 0 0.147221 283.151 0 0 283.15 0 0 283.15 0
          0 283.15 0 0 283.15 0 0 283.15 0 0 283.15 0
          0 283.15 0 0 283.15 0 0 283.15 0 0 283.15 0
          0 283.15 0 0 283.15 0 0 283.15 0 0 283.15 0
          0 283.15 0 0 283.15 0 0 283.15 0 0 283.15 0
          0 283.15 0
        </DataArray>
      </PointData>
      <Points>
        <DataArray type="Float32" Name="Coordinates" NumberOfComponents="3" format="ascii">
          0 0 0 0.0555556 0 0 0 0.0555556 0 0.0555556 0.0555556 0
          0.111111 0 0 0.111111 0.0555556 0 0.166667 0 0 0.166667 0.0555556 0
          0.222222 0 0 0.222222 0.0555556 0 0.277778 0 0 0.277778 0.0555556 0
          0.333333 0 0 0.333333 0.0555556 0 0.388889 0 0 0.388889 0.0555556 0
          0.444444 0 0 0.444444 0.0555556 0 0.5 0 0 0.5 0.0555556 0
          0.555556 0 0 0.555556 0.0555556 0 0.611111 0 0 0.611111 0.0555556 0
          0.666667 0 0 0.666667 0.0555556 0 0.722222 0 0 0.722222 0.0555556 0
          0.777778 0 0 0.777778 0.0555556 0 0.833333 0 0 0.833333 0.0555556 0
          0.888889 0 0 0.888889 0.0555556 0 0.944444 0 0 0.944444 0.0555556 0
          1 0 0 1 0.0555556 0 0 0.111111 0 0.0555556 0.111111 0
          0.111111 0.111111 0 0.166667 0.111111 0 0.222222 0.111111 0 0.277778 0.111111 0
          0.333333 0.111111 0 0.388889 0.111111 0 0.444444 0.111111 0 0.5 0.111111 0
          0.555556 0.111111 0 0.611111 0.111111 0 0.666667 0.111111 0 0.722222 0.111111 0
          0.777778 0.111111 0 0.833333 0.111111 0 0.888889 0.111111 0 0.944444 0.111111 0
          1 0.111111 0 0 0.166667 0 0.0555556 0.166667 0 0.111111 0.166667 0
          0.166667 0.166667 0 0.222222 0.166667 0 0.277778 0.166667 0 0.333333 0.166667 0
          0.388889 0.166667 0 0.444444 0.166667 0 0.5 0.166667 0 0.555556 0.166667 0
          0.611111 0.166667 0 0.666667 0.166667 0 0.722222 0.166667 0 0.777778 0.166667 0
          0.833333 0.166667 0 0.888889 0.166667 0 0.944444 0.166667 0 1 0.166667 0
          0 0.222222 0 0.0555556 0.222222 0 0.111111 0.222222 0 0.166667 0.222222 0
          0.222222 0.222222 0 0.277778 0.222222 0 0.333333 0.222222 0 0.388889 0.222222 0
          0.444444 0.222222 0 0.5 0.222222 0 0.555556 0.222222 0 0.611111 0.222222 0
          0.666667 0.222222 0 0.722222 0.222222 0 0.777778 0.222222 0 0.833333 0.222222 0
          0.888889 0.222222 0 0.944444 0.222222 0 1 0.222222 0 0 0.277778 0
          0.0555556 0.277778 0 0.111111 0.277778 0 0.166667 0.277778 0 0.222222 0.277778 0
          0.277778 0.277778 0 0.333333 0.277778 0 0.388889 0.277778 0 0.444444 0.277778 0