<?xml version="1.0"?>
<VTKFile type="UnstructuredGrid" version="0.1" byte_order="LittleEndian">
  <UnstructuredGrid>
    <Piece NumberOfCells="324" NumberOfPoints="361">
      <PointData Scalars="pressure_gas" Vectors="velocity_gas">
        <DataArray type="Float32" Name="pressure_gas" NumberOfComponents="1" format="ascii">
          100012 100012 100012 100012 100012 100012 100012 100012 100012 100012 100012 100012
          100012 100012 100012 100012 100012 100012 100012 100012 100012 100012 100012 100012
          100012 100012 100012 100012 100012 100012 100012 100012 100012 100012 100012 100012
          100012 100012 100012 100012 100012 100012 100012 100012 100012 100012 100012 100012
          100012 100012 100012 100012 100012 100012 100012 100012 100012 100012 100012 100012
          100012 100012 100012 100012 100012 100012 100012 100012 100012 100012 100012 100012
          100012 100012 100012 100012 100012 100012 100012 100012 100012 100012 100012 100012
          100012 100012 100012 100012 100012 100012 100012 100012 100012 100012 100012 100012
          100012 100012 100012 100012 100012 100012 100012 100012 100012 100012 100012 100012
          100012 100012 100012 100012 100012 100012 100012 100012 100012 100012 100012 100012
          100012 100012 100012 100012 100012 100012 100012 100012 100012 100012 100012 100012
          100012 100012 100012 100012 100012 100012 100012 100012 100012 100012 100012 100012
          100012 100012 100012 100012 100012 100012 100012 100012 100012 100012 100012 100012
          100012 100012 100012 100012 100012 100012 100012 100012 100012 100012 100012 100012
          100012 100012 100012 100012 100012 100012 100012 100012 100012 100012 100012 100012
          100012 100012 100012 100012 100012 100012 100012 100012 100012 100012 100012 100012
          100012 100012 100012 100012 100012 100012 100012 100012 100012 100012 100012 100012
          100012 100012 100012 100012 100012 100012 100012 100012 100012 100012 100012 100012
          100012 100012 100012 100012 100012 100012 100012 100012 100012 100012 100012 100012
          100012 100012 100012 100012 100012 100012 100012 100012 100012 100012 100012 100012
          100012 100012 100012 100012 100012 100012 100012 100012 100012 100012 100012 100012
          100012 100012 100012 100012 100012 100012 100012 100012 100012 100012 100012 100012
          100012 100012 100012 100012 100012 100012 100012 100012 100012 100012 100012 100012
          100012 100012 100012 100012 100012 100012 100012 100012 100012 100012 100012 100012
          100012 100012 100012 100012 100012 100012 100012 100012 100012 100012 100012 100012
          100012 100012 100012 100012 100012 100012 100012 100012 100012 100012 100012 100012
          100012 100012 100012 100012 100012 100012 100012 100012 100012 100012 100012 100012
          100012 100012 100012 100012 100012 100012 100012 100012 100012 100012 100012 100012
          100012 100012 100012 100012 100012 100012 100000 100000 100000 100000 100000 100000
          100000 100000 100000 100000 100000 100000 100000 100000 100000 100000 100000 100000
          100000
        </DataArray>
        <DataArray type="Float32" Name="density_gas" NumberOfComponents="1" format="ascii">
          1.23021 1.23021 1.23021 1.23021 1.23021 1.23021 1.23021 1.23021 1.23021 1.23021 1.23021 1.23021
          1.23021 1.23021 1.23021 1.23021 1.23021 1.23021 1.23021 1.23021 1.23021 1.23021 1.23021 1.23021
          1.23021 1.23021 1.23021 1.23021 1.23021 1.23021 1.23021 1.23021 1.23021 1.23021 1.23021 1.23021
          1.23021 1.23021 1.23021 1.23021 1.23021 1.23021 1.23021 1.23021 1.23021 1.23021 1.23021 1.23021
          1.23021 1.23021 1.23021 1.23021 1.23021 1.23021 1.23021 1.23021 1.23021 1.23021 1.23021 1.23021
          1.23021 1.23021 1.23021 1.23021 1.23021 1.23021 1.23021 1.23021 1.23021 1.23021 1.23021 1.23021
          1.23021 1.23021 1.23021 1.23021 1.23021 1.23021 1.23021 1.23021 1.23021 1.23021 1.23021 1.23021
          1.23021 1.23021 1.23021 1.23021 1.23021 1.23021 1.23021 1.23021 1.23021 1.23021 1.23021 1.23021
          1.23021 1.23021 1.23021 1.23021 1.23021 1.23021 1.23021 1.23021 1.23021 1.23021 1.23021 1.23021
          1.23021 1.23021 1.23021 1.23021 1.23021 1.23021 1.23021 1.23021 1.23021 1.23021 1.23021 1.23021
          1.23021 1.23021 1.23021 1.23021 1.23021 1.23021 1.23021 1.23021 1.23021 1.23021 1.23021 1.23021
          1.23021 1.23021 1.23021 1.23021 1.23021 1.23021 1.23021 1.23021 1.23021 1.23021 1.23021 1.23021
          1.23021 1.23021 1.23021 1.23021 1.23021 1.23021 1.23021 1.23021 1.23021 1.23021 1.23021 1.23021
          1.23021 1.23021 1.23021 1.23021 1.23021 1.23021 1.23021 1.23021 1.23021 1.23021 1.23021 1.23021
          1.23021 1.23021 1.23021 1.23021 1.23021 1.23021 1.23021 1.23021 1.23021 1.23021 1.23021 1.23021
          1.23021 1.23021 1.23021 1.23021 1.23021 1.23021 1.23021 1.23021 1.23021 1.23021 1.23021 1.23021
          1.23021 1.23021 1.23021 1.23021 1.23021 1.23021 1.23021 1.23021 1.23021 1.23021 1.23021 1.23021
          1.23021 1.23021 1.23021 1.23021 1.23021 1.23021 1.23021 1.23021 1.23021 1.23021 1.23021 1.23021
          1.23021 1.23021 1.23021 1.23021 1.23021 1.23021 1.23021 1.23021 1.23021 1.23021 1.23021 1.23021
          1.23021 1.23021 1.23021 1.23021 1.23021 1.23021 1.23021 1.23021 1.23021 1.23021 1.23021 1.23021
          1.23021 1.23021 1.23021 1.23021 1.23021 1.23021 1.23021 1.23021 1.23021 1.23021 1.23021 1.23021
          1.23021 1.23021 1.23021 1.23021 1.23021 1.23021 1.23021 1.23021 1.23021 1.23021 1.23021 1.23021
          1.23021 1.23021 1.23021 1.23021 1.23021 1.23021 1.23021 1.23021 1.23021 1.23021 1.23021 1.23021
          1.23021 1.23021 1.23021 1.23021 1.23021 1.23021 1.23021 1.23021 1.23021 1.23021 1.23021 1.23021
          1.23021 1.23021 1.23021 1.23021 1.23021 1.23021 1.23021 1.23021 1.23021 1.23021 1.23021 1.23021
          1.23021 1.23021 1.23021 1.23021 1.23021 1.23021 1.23021 1.23021 1.23021 1.23021 1.23021 1.23021
          1.23021 1.23021 1.23021 1.23021 1.23021 1.23021 1.23021 1.23021 1.23021 1.23021 1.23021 1.23021
          1.23021 1.23021 1.23021 1.23021 1.23021 1.23021 1.23021 1.23021 1.23021 1.23021 1.23021 1.23021
          1.23021 1.23021 1.23021 1.23021 1.23021 1.23021 1.23007 1.23007 1.23007 1.23007 1.23007 1.23007
          1.23007 1.23007 1.23007 1.23007 1.23007 1.23007 1.23007 1.23007 1.23007 1.23007 1.23007 1.23007
          1.23007
        </DataArray>
        <DataArray type="Float32" Name="moleFraction_gas^H2O" NumberOfComponents="1" format="ascii">
          0.0001 0.0001 0.0001 0.0001 0.0001 0.0001 0.0001 0.0001 0.0001 0.0001 0.0001 0.0001
          0.0001 0.0001 0.0001 0.0001 0.0001 0.0001 0.0001 0.0001 0.0001 0.0001 0.0001 0.0001
          0.0001 0.0001 0.0001 0.0001 0.0001 0.0001 0.0001 0.0001 0.0001 0.0001 0.0001 0.0001
          0.0001 0.0001 0.0001 0.0001 0.0001 0.0001 0.0001 0.0001 0.0001 0.0001 0.0001 0.0001
          0.0001 0.0001 0.0001 0.0001 0.0001 0.0001 0.0001 0.0001 0.0001 0.0001 0.0001 0.0001
          0.0001 0.0001 0.0001 0.0001 0.0001 0.0001 0.0001 0.0001 0.0001 0.0001 0.0001 0.0001
          0.0001 0.0001 0.0001 0.0001 0.0001 0.0001 0.0001 0.0001 0.0001 0.0001 0.0001 0.0001
          0.0001 0.0001 0.0001 0.0001 0.0001 0.0001 0.0001 0.0001 0.0001 0.0001 0.0001 0.0001
          0.0001 0.0001 0.0001 0.0001 0.0001 0.0001 0.0001 0.0001 0.0001 0.0001 0.0001 0.0001
          0.0001 0.0001 0.0001 0.0001 0.0001 0.0001 0.0001 0.0001 0.0001 0.0001 0.0001 0.0001
          0.0001 0.0001 0.0001 0.0001 0.0001 0.0001 0.0001 0.0001 0.0001 0.0001 0.0001 0.0001
          0.0001 0.0001 0.0001 0.0001 0.0001 0.0001 0.0001 0.0001 0.0001 0.0001 0.0001 0.0001
          0.0001 0.0001 0.0001 0.0001 0.0001 0.0001 0.0001 0.0001 0.0001 0.0001 0.0001 0.0001
          0.0001 0.0001 0.0001 0.0001 0.0001 0.0001 0.0001 0.0001 0.0001 0.0001 0.0001 0.0001
          0.0001 0.0001 0.0001 0.0001 0.0001 0.0001 0.0001 0.0001 0.0001 0.0001 0.0001 0.0001
          0.0001 0.0001 0.0001 0.0001 0.0001 0.0001 0.0001 0.0001 0.0001 0.0001 0.0001 0.0001
          0.0001 0.0001 0.0001 0.0001 0.0001 0.0001 0.0001 0.0001 0.0001 0.0001 0.0001 0.0001
          0.0001 0.0001 0.0001 0.0001 0.0001 0.0001 0.0001 0.0001 0.0001 0.0001 0.0001 0.0001
          0.0001 0.0001 0.0001 0.0001 0.0001 0.0001 0.0001 0.0001 0.0001 0.0001 0.0001 0.0001
          0.0001 0.0001 0.0001 0.0001 0.0001 0.0001 0.0001 0.0001 0.0001 0.0001 0.0001 0.0001
          0.0001 0.0001 0.0001 0.0001 0.0001 0.0001 0.0001 0.0001 0.0001 0.0001 0.0001 0.0001
          0.0001 0.0001 0.0001 0.0001 0.0001 0.0001 0.0001 0.0001 0.0001 0.0001 0.0001 0.0001
          0.0001 0.0001 0.0001 0.0001 0.0001 0.0001 0.0001 0.0001 0.0001 0.0001 0.0001 0.0001
          0.0001 0.0001 0.0001 0.0001 0.0001 0.0001 0.0001 0.0001 0.0001 0.0001 0.0001 0.0001
          0.0001 0.0001 0.0001 0.0001 0.0001 0.0001 0.0001 0.0001 0.0001 0.0001 0.0001 0.0001
          0.0001 0.0001 0.0001 0.0001 0.0001 0.0001 0.0001 0.0001 0.0001 0.0001 0.0001 0.0001
          0.0001 0.0001 0.0001 0.0001 0.0001 0.0001 0.0001 0.0001 0.0001 0.0001 0.0001 0.0001
          0.0001 0.0001 0.0001 0.0001 0.0001 0.0001 0.0001 0.0001 0.0001 0.0001 0.0001 0.0001
          0.0001 0.0001 0.0001 0.0001 0.0001 0.0001 0.0001 0.0001 0.0001 0.0001 0.0001 0.0001
          0.0001 0.0001 0.0001 0.0001 0.0001 0.0001 0.0001 0.0001 0.0001 0.0001 0.0001 0.0001
          0.0001
        </DataArray>
        <DataArray type="Float32" Name="moleFraction_gas^Air" NumberOfComponents="1" format="ascii">
          0.9999 0.9999 0.9999 0.9999 0.9999 0.9999 0.9999 0.9999 0.9999 0.9999 0.9999 0.9999
          0.9999 0.9999 0.9999 0.9999 0.9999 0.9999 0.9999 0.9999 0.9999 0.9999 0.9999 0.9999
          0.9999 0.9999 0.9999 0.9999 0.9999 0.9999 0.9999 0.9999 0.9999 0.9999 0.9999 0.9999
          0.9999 0.9999 0.9999 0.9999 0.9999 0.9999 0.9999 0.9999 0.9999 0.9999 0.9999 0.9999
          0.9999 0.9999 0.9999 0.9999 0.9999 0.9999 0.9999 0.9999 0.9999 0.9999 0.9999 0.9999
          0.9999 0.9999 0.9999 0.9999 0.9999 0.9999 0.9999 0.9999 0.9999 0.9999 0.9999 0.9999
          0.9999 0.9999 0.9999 0.9999 0.9999 0.9999 0.9999 0.9999 0.9999 0.9999 0.9999 0.9999
          0.9999 0.9999 0.9999 0.9999 0.9999 0.9999 0.9999 0.9999 0.9999 0.9999 0.9999 0.9999
          0.9999 0.9999 0.9999 0.9999 0.9999 0.9999 0.9999 0.9999 0.9999 0.9999 0.9999 0.9999
          0.9999 0.9999 0.9999 0.9999 0.9999 0.9999 0.9999 0.9999 0.9999 0.9999 0.9999 0.9999
          0.9999 0.9999 0.9999 0.9999 0.9999 0.9999 0.9999 0.9999 0.9999 0.9999 0.9999 0.9999
          0.9999 0.9999 0.9999 0.9999 0.9999 0.9999 0.9999 0.9999 0.9999 0.9999 0.9999 0.9999
          0.9999 0.9999 0.9999 0.9999 0.9999 0.9999 0.9999 0.9999 0.9999 0.9999 0.9999 0.9999
          0.9999 0.9999 0.9999 0.9999 0.9999 0.9999 0.9999 0.9999 0.9999 0.9999 0.9999 0.9999
          0.9999 0.9999 0.9999 0.9999 0.9999 0.9999 0.9999 0.9999 0.9999 0.9999 0.9999 0.9999
          0.9999 0.9999 0.9999 0.9999 0.9999 0.9999 0.9999 0.9999 0.9999 0.9999 0.9999 0.9999
          0.9999 0.9999 0.9999 0.9999 0.9999 0.9999 0.9999 0.9999 0.9999 0.9999 0.9999 0.9999
          0.9999 0.9999 0.9999 0.9999 0.9999 0.9999 0.9999 0.9999 0.9999 0.9999 0.9999 0.9999
          0.9999 0.9999 0.9999 0.9999 0.9999 0.9999 0.9999 0.9999 0.9999 0.9999 0.9999 0.9999
          0.9999 0.9999 0.9999 0.9999 0.9999 0.9999 0.9999 0.9999 0.9999 0.9999 0.9999 0.9999
          0.9999 0.9999 0.9999 0.9999 0.9999 0.9999 0.9999 0.9999 0.9999 0.9999 0.9999 0.9999
          0.9999 0.9999 0.9999 0.9999 0.9999 0.9999 0.9999 0.9999 0.9999 0.9999 0.9999 0.9999
          0.9999 0.9999 0.9999 0.9999 0.9999 0.9999 0.9999 0.9999 0.9999 0.9999 0.9999 0.9999
          0.9999 0.9999 0.9999 0.9999 0.9999 0.9999 0.9999 0.9999 0.9999 0.9999 0.9999 0.9999
          0.9999 0.9999 0.9999 0.9999 0.9999 0.9999 0.9999 0.9999 0.9999 0.9999 0.9999 0.9999
          0.9999 0.9999 0.9999 0.9999 0.9999 0.9999 0.9999 0.9999 0.9999 0.9999 0.9999 0.9999
          0.9999 0.9999 0.9999 0.9999 0.9999 0.9999 0.9999 0.9999 0.9999 0.9999 0.9999 0.9999
          0.9999 0.9999 0.9999 0.9999 0.9999 0.9999 0.9999 0.9999 0.9999 0.9999 0.9999 0.9999
          0.9999 0.9999 0.9999 0.9999 0.9999 0.9999 0.9999 0.9999 0.9999 0.9999 0.9999 0.9999
          0.9999 0.9999 0.9999 0.9999 0.9999 0.9999 0.9999 0.9999 0.9999 0.9999 0.9999 0.9999
          0.9999
        </DataArray>
        <DataArray type="Float32" Name="temperature_gas" NumberOfComponents="1" format="ascii">
          283.15 283.15 283.15 283.15 283.15 283.15 283.15 283.15 283.15 283.15 283.15 283.15
          283.15 283.15 283.15 283.15 283.15 283.15 283.15 283.15 283.15 283.15 283.15 283.15
          283.15 283.15 283.15 283.15 283.15 283.15 283.15 283.15 283.15 283.15 283.15 283.15
          283.15 283.15 283.15 283.15 283.15 283.15 283.15 283.15 283.15 283.15 283.15 283.15
          283.15 283.15 283.15 283.15 283.15 283.15 283.15 283.15 283.15 283.15 283.15 283.15
          283.15 283.15 283.15 283.15 283.15 283.15 283.15 283.15 283.15 283.15 283.15 283.15
          283.15 283.15 283.15 283.15 283.15 283.15 283.15 283.15 283.15 283.15 283.15 283.15
          283.15 283.15 283.15 283.15 283.15 283.15 283.15 283.15 283.15 283.15 283.15 283.15
          283.15 283.15 283.15 283.15 283.15 283.15 283.15 283.15 283.15 283.15 283.15 283.15
          283.15 283.15 283.15 283.15 283.15 283.15 283.15 283.15 283.15 283.15 283.15 283.15
          283.15 283.15 283.15 283.15 283.15 283.15 283.15 283.15 283.15 283.15 283.15 283.15
          283.15 283.15 283.15 283.15 283.15 283.15 283.15 283.15 283.15 283.15 283.15 283.15
          283.15 283.15 283.15 283.15 283.15 283.15 283.15 283.15 283.15 283.15 283.15 283.15
          283.15 283.15 283.15 283.15 283.15 283.15 283.15 283.15 283.15 283.15 283.15 283.15
          283.15 283.15 283.15 283.15 283.15 283.15 283.15 283.15 283.15 283.15 283.15 283.15
          283.15 283.15 283.15 283.15 283.15 283.15 283.15 283.15 283.15 283.15 283.15 283.15
          283.15 283.15 283.15 283.15 283.15 283.15 283.15 283.15 283.15 283.15 283.15 283.15
          283.15 283.15 283.15 283.15 283.15 283.15 283.15 283.15 283.15 283.15 283.15 283.15
          283.15 283.15 283.15 283.15 283.15 283.15 283.15 283.15 283.15 283.15 283.15 283.15
          283.15 283.15 283.15 283.15 283.15 283.15 283.15 283.15 283.15 283.15 283.15 283.15
          283.15 283.15 283.15 283.15 283.15 283.15 283.15 283.15 283.15 283.15 283.15 283.15
          283.15 283.15 283.15 283.15 283.15 283.15 283.15 283.15 283.15 283.15 283.15 283.15
          283.15 283.15 283.15 283.15 283.15 283.15 283.15 283.15 283.15 283.15 283.15 283.15
          283.15 283.15 283.15 283.15 283.15 283.15 283.15 283.15 283.15 283.15 283.15 283.15
          283.15 283.15 283.15 283.15 283.15 283.15 283.15 283.15 283.15 283.15 283.15 283.15
          283.15 283.15 283.15 283.15 283.15 283.15 283.15 283.15 283.15 283.15 283.15 283.15
          283.15 283.15 283.15 283.15 283.15 283.15 283.15 283.15 283.15 283.15 283.15 283.15
          283.15 283.15 283.15 283.15 283.15 283.15 283.15 283.15 283.15 283.15 283.15 283.15
          283.15 283.15 283.15 283.15 283.15 283.15 283.15 283.15 283.15 283.15 283.15 283.15
          283.15 283.15 283.15 283.15 283.15 283.15 283.15 283.15 283.15 283.15 283.15 283.15
          283.15
        </DataArray>
        <DataArray type="Float32" Name="viscosity_gas" NumberOfComponents="1" format="ascii">
          1.75174e-05 1.75174e-05 1.75174e-05 1.75174e-05 1.75174e-05 1.75174e-05 1.75174e-05 1.75174e-05 1.75174e-05 1.75174e-05 1.75174e-05 1.75174e-05
          1.75174e-05 1.75174e-05 1.75174e-05 1.75174e-05 1.75174e-05 1.75174e-05 1.75174e-05 1.75174e-05 1.75174e-05 1.75174e-05 1.75174e-05 1.75174e-05
          1.75174e-05 1.75174e-05 1.75174e-05 1.75174e-05 1.75174e-05 1.75174e-05 1.75174e-05 1.75174e-05 1.75174e-05 1.75174e-05 1.75174e-05 1.75174e-05
          1.75174e-05 1.75174e-05 1.75174e-05 1.75174e-05 1.75174e-05 1.75174e-05 1.75174e-05 1.75174e-05 1.75174e-05 1.75174e-05 1.75174e-05 1.75174e-05
          1.75174e-05 1.75174e-05 1.75174e-05 1.75174e-05 1.75174e-05 1.75174e-05 1.75174e-05 1.75174e-05 1.75174e-05 1.75174e-05 1.75174e-05 1.75174e-05
          1.75174e-05 1.75174e-05 1.75174e-05 1.75174e-05 1.75174e-05 1.75174e-05 1.75174e-05 1.75174e-05 1.75174e-05 1.75174e-05 1.75174e-05 1.75174e-05
          1.75174e-05 1.75174e-05 1.75174e-05 1.75174e-05 1.75174e-05 1.75174e-05 1.75174e-05 1.75174e-05 1.75174e-05 1.75174e-05 1.75174e-05 1.75174e-05
          1.75174e-05 1.75174e-05 1.75174e-05 1.75174e-05 1.75174e-05 1.75174e-05 1.75174e-05 1.75174e-05 1.75174e-05 1.75174e-05 1.75174e-05 1.75174e-05
          1.75174e-05 1.75174e-05 1.75174e-05 1.75174e-05 1.75174e-05 1.75174e-05 1.75174e-05 1.75174e-05 1.75174e-05 1.75174e-05 1.75174e-05 1.75174e-05
          1.75174e-05 1.75174e-05 1.75174e-05 1.75174e-05 1.75174e-05 1.75174e-05 1.75174e-05 1.75174e-05 1.75174e-05 1.75174e-05 1.75174e-05 1.75174e-05
          1.75174e-05 1.75174e-05 1.75174e-05 1.75174e-05 1.75174e-05 1.75174e-05 1.75174e-05 1.75174e-05 1.75174e-05 1.75174e-05 1.75174e-05 1.75174e-05
          1.75174e-05 1.75174e-05 1.75174e-05 1.75174e-05 1.75174e-05 1.75174e-05 1.75174e-05 1.75174e-05 1.75174e-05 1.75174e-05 1.75174e-05 1.75174e-05
          1.75174e-05 1.75174e-05 1.75174e-05 1.75174e-05 1.75174e-05 1.75174e-05 1.75174e-05 1.75174e-05 1.75174e-05 1.75174e-05 1.75174e-05 1.75174e-05
          1.75174e-05 1.75174e-05 1.75174e-05 1.75174e-05 1.75174e-05 1.75174e-05 1.75174e-05 1.75174e-05 1.75174e-05 1.75174e-05 1.75174e-05 1.75174e-05
          1.75174e-05 1.75174e-05 1.75174e-05 1.75174e-05 1.75174e-05 1.75174e-05 1.75174e-05 1.75174e-05 1.75174e-05 1.75174e-05 1.75174e-05 1.75174e-05
          1.75174e-05 1.75174e-05 1.75174e-05 1.75174e-05 1.75174e-05 1.75174e-05 1.75174e-05 1.75174e-05 1.75174e-05 1.75174e-05 1.75174e-05 1.75174e-05
          1.75174e-05 1.75174e-05 1.75174e-05 1.75174e-05 1.75174e-05 1.75174e-05 1.75174e-05 1.75174e-05 1.75174e-05 1.75174e-05 1.75174e-05 1.75174e-05
          1.75174e-05 1.75174e-05 1.75174e-05 1.75174e-05 1.75174e-05 1.75174e-05 1.75174e-05 1.75174e-05 1.75174e-05 1.75174e-05 1.75174e-05 1.75174e-05
          1.75174e-05 1.75174e-05 1.75174e-05 1.75174e-05 1.75174e-05 1.75174e-05 1.75174e-05 1.75174e-05 1.75174e-05 1.75174e-05 1.75174e-05 1.75174e-05
          1.75174e-05 1.75174e-05 1.75174e-05 1.75174e-05 1.75174e-05 1.75174e-05 1.75174e-05 1.75174e-05 1.75174e-05 1.75174e-05 1.75174e-05 1.75174e-05
          1.75174e-05 1.75174e-05 1.75174e-05 1.75174e-05 1.75174e-05 1.75174e-05 1.75174e-05 1.75174e-05 1.75174e-05 1.75174e-05 1.75174e-05 1.75174e-05
          1.75174e-05 1.75174e-05 1.75174e-05 1.75174e-05 1.75174e-05 1.75174e-05 1.75174e-05 1.75174e-05 1.75174e-05 1.75174e-05 1.75174e-05 1.75174e-05
          1.75174e-05 1.75174e-05 1.75174e-05 1.75174e-05 1.75174e-05 1.75174e-05 1.75174e-05 1.75174e-05 1.75174e-05 1.75174e-05 1.75174e-05 1.75174e-05
          1.75174e-05 1.75174e-05 1.75174e-05 1.75174e-05 1.75174e-05 1.75174e-05 1.75174e-05 1.75174e-05 1.75174e-05 1.75174e-05 1.75174e-05 1.75174e-05
          1.75174e-05 1.75174e-05 1.75174e-05 1.75174e-05 1.75174e-05 1.75174e-05 1.75174e-05 1.75174e-05 1.75174e-05 1.75174e-05 1.75174e-05 1.75174e-05
          1.75174e-05 1.75174e-05 1.75174e-05 1.75174e-05 1.75174e-05 1.75174e-05 1.75174e-05 1.75174e-05 1.75174e-05 1.75174e-05 1.75174e-05 1.75174e-05
          1.75174e-05 1.75174e-05 1.75174e-05 1.75174e-05 1.75174e-05 1.75174e-05 1.75174e-05 1.75174e-05 1.75174e-05 1.75174e-05 1.75174e-05 1.75174e-05
          1.75174e-05 1.75174e-05 1.75174e-05 1.75174e-05 1.75174e-05 1.75174e-05 1.75174e-05 1.75174e-05 1.75174e-05 1.75174e-05 1.75174e-05 1.75174e-05
          1.75174e-05 1.75174e-05 1.75174e-05 1.75174e-05 1.75174e-05 1.75174e-05 1.75174e-05 1.75174e-05 1.75174e-05 1.75174e-05 1.75174e-05 1.75174e-05
          1.75174e-05 1.75174e-05 1.75174e-05 1.75174e-05 1.75174e-05 1.75174e-05 1.75174e-05 1.75174e-05 1.75174e-05 1.75174e-05 1.75174e-05 1.75174e-05
          1.75174e-05
        </DataArray>
        <DataArray type="Float32" Name="velocity_gas" NumberOfComponents="3" format="ascii">
          0 283.15 0 0 283.15 0 -9.34234e-12 283.15 0 6.94956e-12 283.15 0
          0 283.15 0 -5.91933e-12 283.15 0 0 283.15 0 2.55285e-12 283.15 0
          0 283.15 0 -3.93677e-12 283.15 0 0 283.15 0 4.33284e-12 283.15 0
          0 283.15 0 7.89245e-14 283.15 0 0 283.15 0 -1.32122e-13 283.15 0
          0 283.15 0 2.42691e-12 283.15 0 0 283.15 0 1.45822e-12 283.15 0
          0 283.15 0 3.47669e-12 283.15 0 0 283.15 0 6.68674e-12 283.15 0
          0 283.15 0 6.19553e-12 283.15 0 0 283.15 0 2.51506e-12 283.15 0
          0 283.15 0 7.18554e-12 283.15 0 0 283.15 0 -9.96618e-13 283.15 0
          0 283.15 0 8.09853e-12 283.15 0 0 283.15 0 -6.41453e-12 283.15 0
          0 283.15 0 8.56303e-12 283.15 0 2.42206e-11 283.15 0 -2.01125e-11 283.15 0
          2.06664e-11 283.15 0 -1.29094e-11 283.15 0 1.3723e-11 283.15 0 -1.2409e-11 283.15 0
          7.82057e-12 283.15 0 -5.07934e-12 283.15 0 -8.62738e-13 283.15 0 3.31115e-13 283.15 0
          -7.46838e-12 283.15 0 -4.02189e-12 283.15 0 -1.71064e-11 283.15 0 3.08786e-12 283.15 0
          -2.23285e-11 283.15 0 9.17363e-12 283.15 0 -2.22778e-11 283.15 0 1.69678e-11 283.15 0
          -1.92007e-11 283.15 0 -2.21387e-11 283.15 0 1.90215e-11 283.15 0 -2.1644e-11 283.15 0
          1.5938e-11 283.15 0 -1.75391e-11 283.15 0 1.60578e-11 283.15 0 -1.18034e-11 283.15 0
          1.00551e-11 283.15 0 -2.19985e-12 283.15 0 -2.309e-12 283.15 0 6.06526e-12 283.15 0
          -3.6266e-12 283.15 0 1.64118e-11 283.15 0 -9.65718e-12 283.15 0 1.94252e-11 283.15 0
          -1.48859e-11 283.15 0 2.37558e-11 283.15 0 -1.98603e-11 283.15 0 1.88032e-11 283.15 0
          3.60572e-12 283.15 0 -1.67972e-12 283.15 0 5.70084e-12 283.15 0 -7.31931e-12 283.15 0
          7.99461e-12 283.15 0 -7.52631e-12 283.15 0 6.08172e-12 283.15 0 -6.85051e-12 283.15 0
          3.37909e-12 283.15 0 1.76456e-12 283.15 0 1.4629e-12 283.15 0 5.25793e-12 283.15 0
          -4.20283e-12 283.15 0 6.2833e-12 283.15 0 -3.57983e-12 283.15 0 6.60406e-12 283.15 0
          -1.07334e-11 283.15 0 7.84279e-12 283.15 0 -6.66374e-12 283.15 0 6.98254e-12 283.15 0
          -9.35063e-12 283.15 0 5.36073e-12 283.15 0 -6.17563e-13 283.15 0 1.18593e-12 283.15 0
          -2.32858e-12 283.15 0 9.89246e-13 283.15 0 3.18172e-12 283.15 0 -2.76546e-12 283.15 0
          1.03572e-13 283.15 0 -6.28375e-12 283.15 0 -4.12993e-12 283.15 0 -8.82064e-13 283.15 0
          -2.95844e-12 283.15 0 -1.10496e-12 283.15 0 4.40898e-12 283.15 0 -1.33755e-12 283.15 0
          6.99289e-12 283.15 0 -6.54003e-12 283.15 0 -6.56839e-12 283.15 0 1.01564e-11 283.15 0
          -6.85346e-12 283.15 0 2.19777e-12 283.15 0 -3.03684e-12 283.15 0 2.61223e-12 283.15 0
          -5.76709e-12 283.15 0 -4.62245e-12 283.15 0 7.80738e-13 283.15 0 -4.67807e-12 283.15 0
          3.46235e-12 283.15 0 -1.58672e-12 283.15 0 -2.81206e-12 283.15 0 4.12948e-12 283.15 0
          -4.40559e-12 283.15 0 -8.94473e-12 283.15 0 2.67833e-12 283.15 0 -1.16616e-11 283.15 0
          1.27916e-11 283.15 0 -3.55544e-13 283.15 0 -2.5639e-12 283.15 0 -5.36857e-13 283.15 0
          4.89206e-12 283.15 0 9.14505e-13 283.15 0 1.55982e-12 283.15 0 3.39594e-12 283.15 0
          5.12985e-12 283.15 0 -2.08072e-12 283.15 0 6.14589e-12 283.15 0 3.02139e-12 283.15 0
          7.67471e-12 283.15 0 6.72067e-12 283.15 0 -4.34874e-12 283.15 0 1.18808e-11 283.15 0
          3.36392e-12 283.15 0 5.94235e-12 283.15 0 3.52351e-12 283.15 0 -6.65344e-12 283.15 0
          4.39244e-12 283.15 0 -2.89844e-12 283.15 0 6.0459e-12 283.15 0 -8.58814e-12 283.15 0
          -1.16428e-12 283.15 0 -3.65039e-12 283.15 0 1.86995e-12 283.15 0 -5.19177e-13 283.15 0
          3.94475e-12 283.15 0 -3.66062e-12 283.15 0 -8.6376e-12 283.15 0 -6.61594e-12 283.15 0
          -5.88334e-12 283.15 0 6.71051e-15 283.15 0 -1.15572e-11 283.15 0 1.92201e-12 283.15 0
          -8.21321e-12 283.15 0 2.59854e-12 283.15 0 -7.30511e-13 283.15 0 7.02476e-13 283.15 0
          -2.56757e-12 283.15 0 -4.57061e-12 283.15 0 1.5805e-12 283.15 0 4.85656e-12 283.15 0
          1.41783e-12 283.15 0 -3.0258e-12 283.15 0 -3.73231e-12 283.15 0 -4.84821e-12 283.15 0
          4.41535e-12 283.15 0 8.12172e-12 283.15 0 6.53746e-12 283.15 0 3.02737e-12 283.15 0
          7.31541e-12 283.15 0 9.80125e-12 283.15 0 2.60291e-12 283.15 0 4.13454e-12 283.15 0
          1.67714e-13 283.15 0 4.40858e-13 283.15 0 -9.22785e-12 283.15 0 1.0477e-11 283.15 0
          5.19675e-13 283.15 0 7.4754e-12 283.15 0 -8.25683e-12 283.15 0 6.69229e-12 283.15 0
          -2.13003e-13 283.15 0 6.7765e-12 283.15 0 3.87947e-12 283.15 0 -3.92799e-12 283.15 0
          -4.29701e-12 283.15 0 -7.42851e-12 283.15 0 -6.60417e-13 283.15 0 -1.3597e-11 283.15 0
          -6.13514e-12 283.15 0 -1.25468e-11 283.15 0 2.85547e-12 283.15 0 -6.94254e-12 283.15 0
          6.96418e-12 283.15 0 1.544e-11 283.15 0 -1.53217e-11 283.15 0 9.14507e-12 283.15 0
          -1.06433e-11 283.15 0 1.25767e-11 283.15 0 -1.12955e-11 283.15 0 9.41679e-12 283.15 0
          -6.68124e-12 283.15 0 1.1116e-12 283.15 0 2.30518e-12 283.15 0 -9.64253e-13 283.15 0
          4.74163e-12 283.15 0 -3.77214e-12 283.15 0 1.46388e-11 283.15 0 -6.11537e-12 283.15 0
          1.95638e-11 283.15 0 -1.19929e-11 283.15 0 1.16358e-11 283.15 0 -1.43412e-11 283.15 0
          -1.70264e-11 283.15 0 1.46128e-11 283.15 0 -1.79667e-11 283.15 0 1.0922e-11 283.15 0
          -1.60946e-11 283.15 0 9.29026e-12 283.15 0 -1.4173e-11 283.15 0 3.34644e-12 283.15 0
          -1.57261e-12 283.15 0 -1.46973e-12 283.15 0 1.1477e-11 283.15 0 -3.4822e-12 283.15 0
          1.09507e-11 283.15 0 -1.13087e-11 283.15 0 1.13638e-11 283.15 0 -1.54774e-11 283.15 0
          1.4293e-11 283.15 0 -9.43871e-12 283.15 0 1.27749e-11 283.15 0 1.08551e-11 283.15 0
          -6.81863e-12 283.15 0 1.52126e-11 283.15 0 -7.2053e-12 283.15 0 1.09015e-11 283.15 0
          -2.93099e-12 283.15 0 7.53453e-12 283.15 0 1.76369e-12 283.15 0 -5.0395e-15 283.15 0
          2.28792e-12 283.15 0 -1.07331e-11 283.15 0 4.03672e-12 283.15 0 -9.97662e-12 283.15 0
          5.92513e-12 283.15 0 -3.8107e-12 283.15 0 4.52762e-12 283.15 0 -8.68524e-12 283.15 0
          2.00911e-12 283.15 0 -4.56256e-12 283.15 0 -3.72051e-12 283.15 0 2.01503e-12 283.15 0
          -8.39464e-12 283.15 0 -3.51472e-13 283.15 0 -7.15741e-12 283.15 0 -3.83782e-12 283.15 0
          -4.20016e-12 283.15 0 -5.99553e-12 283.15 0 -7.08219e-13 283.15 0 -4.95739e-12 283.15 0
          -3.64921e-13 283.15 0 -1.6552e-12 283.15 0 2.67181e-12 283.15 0 2.1796e-12 283.15 0
          -3.50266e-15 283.15 0 1.53187e-12 283.15 0 7.43411e-12 283.15 0 -3.8475e-13 283.15 0
          2.77053e-12 283.15 0 -6.22464e-12 283.15 0 6.51266e-12 283.15 0 -5.12936e-12 283.15 0
          7.45868e-12 283.15 0 2.06103e-12 283.15 0 4.70228e-12 283.15 0 2.02191e-12 283.15 0
          1.88213e-12 283.15 0 1.53742e-12 283.15 0 7.39526e-13 283.15 0 3.96078e-12 283.15 0
          -3.47226e-12 283.15 0 3.34877e-12 283.15 0 -7.40323e-12 283.15 0 4.91082e-12 283.15 0
          -5.14561e-12 283.15 0 -3.54486e-12 283.15 0 -2.66627e-13 283.15 0 -1.45556e-12 283.15 0
          1.22676e-11 283.15 0 -1.31526e-11 283.15 0 1.65321e-11 283.15 0 -7.94821e-12 283.15 0
          6.63904e-12 283.15 0 -4.64077e-12 283.15 0 4.03579e-12 283.15 0 6.23212e-12 283.15 0
          -4.02478e-12 283.15 0 5.16945e-12 283.15 0 -1.0969e-12 283.15 0 4.61058e-12 283.15 0
          -6.48414e-12 283.15 0 5.93622e-12 283.15 0 -8.8131e-12 283.15 0 8.76568e-12 283.15 0
          -2.37713e-12 283.15 0 5.02734e-12 283.15 0 -3.65402e-12 283.15 0 -5.74785e-12 283.15 0
          5.65205e-12 283.15 0 -9.9641e-12 283.15 0 4.776e-13 283.15 0 -4.08303e-12 283.15 0
          5.11683e-12 283.15 0 -4.28183e-12 283.15 0 -7.33718e-12 283.15 0 4.63138e-12 283.15 0
          -3.65277e-12 283.15 0 -1.33995e-12 283.15 0 9.75541e-14 283.15 0 1.60728e-12 283.15 0
          -1.29657e-12 283.15 0 1.13303e-12 283.15 0 -5.8871e-12 283.15 0 6.28182e-14 283.15 0
          -6.03234e-12 283.15 0 6.28376e-12 283.15 0 0 283.15 0 0 283.15 0
          0 283.15 0 0 283.15 0 0 283.15 0 0 283.15 0
          0 283.15 0 0 283.15 0 0 283.15 0 0 283.15 0
          0 283.15 0 0 283.15 0 0 283.15 0 0 283.15 0
          0 283.15 0 0 283.15 0 0 283.15 0 0 283.15 0
          0 283.15 0
        </DataArray>
      </PointData>
      <Points>
        <DataArray type="Float32" Name="Coordinates" NumberOfComponents="3" format="ascii">
          0 0 0 0.0555556 0 0 0 0.0555556 0 0.0555556 0.0555556 0
          0.111111 0 0 0.111111 0.0555556 0 0.166667 0 0 0.166667 0.0555556 0
          0.222222 0 0 0.222222 0.0555556 0 0.277778 0 0 0.277778 0.0555556 0
          0.333333 0 0 0.333333 0.0555556 0 0.388889 0 0 0.388889 0.0555556 0
          0.444444 0 0 0.444444 0.0555556 0 0.5 0 0 0.5 0.0555556 0
          0.555556 0 0 0.555556 0.0555556 0 0.611111 0 0 0.611111 0.0555556 0
          0.666667 0 0 0.666667 0.0555556 0 0.722222 0 0 0.722222 0.0555556 0
          0.777778 0 0 0.777778 0.0555556 0 0.833333 0 0 0.833333 0.0555556 0
          0.888889 0 0 0.888889 0.0555556 0 0.944444 0 0 0.944444 0.0555556 0
          1 0 0 1 0.0555556 0 0 0.111111 0 0.0555556 0.111111 0
          0.111111 0.111111 0 0.166667 0.111111 0 0.222222 0.111111 0 0.277778 0.111111 0
          0.333333 0.111111 0 0.388889 0.111111 0 0.444444 0.111111 0 0.5 0.111111 0
          0.555556 0.111111 0 0.611111 0.111111 0 0.666667 0.111111 0 0.722222 0.111111 0
          0.777778 0.111111 0 0.833333 0.111111 0 0.888889 0.111111 0 0.944444 0.111111 0
          1 0.111111 0 0 0.166667 0 0.0555556 0.166667 0 0.111111 0.166667 0
          0.166667 0.166667 0 0.222222 0.166667 0 0.277778 0.166667 0 0.333333 0.166667 0
          0.388889 0.166667 0 0.444444 0.166667 0 0.5 0.166667 0 0.555556 0.166667 0