<?xml version="1.0"?>
<VTKFile type="UnstructuredGrid" version="0.1" byte_order="LittleEndian">
  <UnstructuredGrid>
    <Piece NumberOfCells="1024" NumberOfPoints="1089">
      <PointData Scalars="pressure_gas" Vectors="velocity_gas">
        <DataArray type="Float32" Name="pressure_gas" NumberOfComponents="1" format="ascii">
          100000 100000 100000 100000 100000 100000 100000 100000 100000 100000 100000 100000
          100000 100000 100000 100000 100000 100000 100000 100000 100000 100000 100000 100000
          100000 100000 100000 100000 100000 100000 100000 100000 100000 100000 100000 100000
          100000 100000 100000 100000 100000 100000 100000 100000 100000 100000 100000 100000
          100000 100000 100000 100000 100000 100000 100000 100000 100000 100000 100000 100000
          100000 100000 100000 100000 100000 100000 100000 100000 100000 100000 100000 100000
          100000 100000 100000 100000 100000 100000 100000 100000 100000 100000 100000 100000
          100000 100000 100000 100000 100000 100000 100000 100000 100000 100000 100000 100000
          100000 100000 100000 100000 100000 100000 100000 100000 100000 100000 100000 100000
          100000 100000 100000 100000 100000 100000 100000 100000 100000 100000 100000 100000
          100000 100000 100000 100000 100000 100000 100000 100000 100000 100000 100000 100000
          100000 100000 100000 100000 100000 100000 100000 100000 100000 100000 100000 100000
          100000 100000 100000 100000 100000 100000 100000 100000 100000 100000 100000 100000
          100000 100000 100000 100000 100000 100000 100000 100000 100000 100000 100000 100000
          100000 100000 100000 100000 100000 100000 100000 100000 100000 100000 100000 100000
          100000 100000 100000 100000 100000 100000 100000 100000 100000 100000 100000 100000
          100000 100000 100000 100000 100000 100000 100000 100000 100000 100000 100000 100000
          100000 100000 100000 100000 100000 100000 100000 100000 100000 100000 100000 100000
          100000 100000 100000 100000 100000 100000 100000 100000 100000 100000 100000 100000
          100000 100000 100000 100000 100000 100000 100000 100000 100000 100000 100000 100000
          100000 100000 100000 100000 100000 100000 100000 100000 100000 100000 100000 100000
          100000 100000 100000 100000 100000 100000 100000 100000 100000 100000 100000 100000
          100000 100000 100000 100000 100000 100000 100000 100000 100000 100000 100000 100000
          100000 100000 100000 100000 100000 100000 100000 100000 100000 100000 100000 100000
          100000 100000 100000 100000 100000 100000 100000 100000 100000 100000 100000 100000
          100000 100000 100000 100000 100000 100000 100000 100000 100000 100000 100000 100000
          100000 100000 100000 100000 100000 100000 100000 100000 100000 100000 100000 100000
          100000 100000 100000 100000 100000 100000 100000 100000 100000 100000 100000 100000
          100000 100000 100000 100000 100000 100000 100000 100000 100000 100000 100000 100000
          100000 100000 100000 100000 100000 100000 100000 100000 100000 100000 100000 100000
          100000 100000 100000 100000 100000 100000 100000 100000 100000 100000 100000 100000
          100000 100000 100000 100000 100000 100000 100000 100000 100000 100000 100000 100000
          100000 100000 100000 100000 100000 100000 100000 100000 100000 100000 100000 100000
          100000 100000 100000 100000 100000 100000 100000 100000 100000 100000 100000 100000
          100000 100000 100000 100000 100000 100000 100000 100000 100000 100000 100000 100000
          100000 100000 100000 100000 100000 100000 100000 100000 100000 100000 100000 100000
          100000 100000 100000 100000 100000 100000 100000 100000 100000 100000 100000 100000
          100000 100000 100000 100000 100000 100000 100000 100000 100000 100000 100000 100000
          100000 100000 100000 100000 100000 100000 100000 100000 100000 100000 100000 100000
          100000 100000 100000 100000 100000 100000 100000 100000 100000 100000 100000 100000
          100000 100000 100000 100000 100000 100000 100000 100000 100000 100000 100000 100000
          100000 100000 100000 100000 100000 100000 100000 100000 100000 100000 100000 100000
          100000 100000 100000 100000 100000 100000 100000 100000 100000 100000 100000 100000
          100000 100000 100000 100000 100000 100000 100000 100000 100000 100000 100000 100000
          100000 100000 100000 100000 100000 100000 100000 100000 100000 100000 100000 100000
          100000 100000 100000 100000 100000 100000 100000 100000 100000 100000 100000 100000
          100000 100000 100000 100000 100000 100000 100000 100000 100000 100000 100000 100000
          100000 100000 100000 100000 100000 100000 100000 100000 100000 100000 100000 100000
          100000 100000 100000 100000 100000 100000 100000 100000 100000 100000 100000 100000
          100000 100000 100000 100000 100000 100000 100000 100000 100000 100000 100000 100000
          100000 100000 100000 100000 100000 100000 100000 100000 100000 100000 100000 100000
          100000 100000 100000 100000 100000 100000 100000 100000 100000 100000 100000 100000
          100000 100000 100000 100000 100000 100000 100000 100000 100000 100000 100000 100000
          100000 100000 100000 100000 100000 100000 100000 100000 100000 100000 100000 100000
          100000 100000 100000 100000 100000 100000 100000 100000 100000 100000 100000 100000
          100000 100000 100000 100000 100000 100000 100000 100000 100000 100000 100000 100000
          100000 100000 100000 100000 100000 100000 100000 100000 100000 100000 100000 100000
          100000 100000 100000 100000 100000 100000 100000 100000 100000 100000 100000 100000
          100000 100000 100000 100000 100000 100000 100000 100000 100000 100000 100000 100000
          100000 100000 100000 100000 100000 100000 100000 100000 100000 100000 100000 100000
          100000 100000 100000 100000 100000 100000 100000 100000 100000 100000 100000 100000
          100000 100000 100000 100000 100000 100000 100000 100000 100000 100000 100000 100000
          100000 100000 100000 100000 100000 100000 100000 100000 100000 100000 100000 100000
          100000 100000 100000 100000 100000 100000 100000 100000 100000 100000 100000 100000
          100000 100000 100000 100000 100000 100000 100000 100000 100000 100000 100000 100000
          100000 100000 100000 100000 100000 100000 100000 100000 100000 100000 100000 100000
          100000 100000 100000 100000 100000 100000 100000 100000 100000 100000 100000 100000
          100000 100000 100000 100000 100000 100000 100000 100000 100000 100000 100000 100000
          100000 100000 100000 100000 100000 100000 100000 100000 100000 100000 100000 100000
          100000 100000 100000 100000 100000 100000 100000 100000 100000 100000 100000 100000
          100000 100000 100000 100000 100000 100000 100000 100000 100000 100000 100000 100000
          100000 100000 100000 100000 100000 100000 100000 100000 100000 100000 100000 100000
          100000 100000 100000 100000 100000 100000 100000 100000 100000 100000 100000 100000
          100000 100000 100000 100000 100000 100000 100000 100000 100000 100000 100000 100000
          100000 100000 100000 100000 100000 100000 100000 100000 100000 100000 100000 100000
          100000 100000 100000 100000 100000 100000 100000 100000 100000 100000 100000 100000
          100000 100000 100000 100000 100000 100000 100000 100000 100000 100000 100000 100000
          100000 100000 100000 100000 100000 100000 100000 100000 100000 100000 100000 100000
          100000 100000 100000 100000 100000 100000 100000 100000 100000 100000 100000 100000
          100000 100000 100000 100000 100000 100000 100000 100000 100000 100000 100000 100000
          100000 100000 100000 100000 100000 100000 100000 100000 100000 100000 100000 100000
          100000 100000 100000 100000 100000 100000 100000 100000 100000 100000 100000 100000
          100000 100000 100000 100000 100000 100000 100000 100000 100000 100000 100000 100000
          100000 100000 100000 100000 100000 100000 100000 100000 100000 100000 100000 100000
          100000 100000 100000 100000 100000 100000 100000 100000 100000 100000 100000 100000
          100000 100000 100000 100000 100000 100000 100000 100000 100000 100000 100000 100000
          100000 100000 100000 100000 100000 100000 100000 100000 100000 100000 100000 100000
          100000 100000 100000 100000 100000 100000 100000 100000 100000 100000 100000 100000
          100000 100000 100000 100000 100000 100000 100000 100000 100000 100000 100000 100000
          100000 100000 100000 100000 100000 100000 100000 100000 100000 100000 100000 100000
          100000 100000 100000 100000 100000 100000 100000 100000 100000
        </DataArray>
        <DataArray type="Float32" Name="density_gas" NumberOfComponents="1" format="ascii">
          1.22687 1.22687 1.22687 1.22687 1.2269 1.22691 1.22703 1.22703 1.22718 1.22719 1.22732 1.22733
          1.22743 1.22744 1.22751 1.22752 1.22756 1.22757 1.2276 1.22761 1.22763 1.22764 1.22765 1.22766
          1.22767 1.22767 1.22768 1.22768 1.22768 1.22769 1.22769 1.22769 1.22769 1.22769 1.22769 1.22769
          1.22768 1.22769 1.22768 1.22768 1.22767 1.22767 1.22765 1.22766 1.22763 1.22764 1.2276 1.22761
          1.22756 1.22757 1.22751 1.22752 1.22743 1.22744 1.22732 1.22733 1.22718 1.22719 1.22703 1.22703
          1.2269 1.22691 1.22687 1.22687 1.22687 1.22687 1.22687 1.22687 1.22691 1.22706 1.22722 1.22736
          1.22746 1.22754 1.22759 1.22763 1.22765 1.22767 1.22768 1.22769 1.2277 1.2277 1.2277 1.2277
          1.2277 1.22769 1.22768 1.22767 1.22765 1.22763 1.22759 1.22754 1.22746 1.22736 1.22722 1.22706
          1.22691 1.22687 1.22687 1.22687 1.22687 1.22692 1.22708 1.22725 1.22739 1.22749 1.22756 1.22761
          1.22764 1.22766 1.22768 1.22769 1.2277 1.22771 1.22771 1.22771 1.22771 1.22771 1.2277 1.22769
          1.22768 1.22766 1.22764 1.22761 1.22756 1.22749 1.22739 1.22725 1.22708 1.22692 1.22687 1.22687
          1.22687 1.22687 1.22693 1.2271 1.22728 1.22741 1.22751 1.22758 1.22762 1.22765 1.22768 1.22769
          1.2277 1.22771 1.22772 1.22772 1.22772 1.22772 1.22772 1.22771 1.2277 1.22769 1.22768 1.22765
          1.22762 1.22758 1.22751 1.22741 1.22728 1.2271 1.22693 1.22687 1.22687 1.22687 1.22687 1.22695
          1.22713 1.2273 1.22744 1.22753 1.22759 1.22764 1.22767 1.22769 1.2277 1.22771 1.22772 1.22773
          1.22773 1.22773 1.22773 1.22773 1.22772 1.22771 1.2277 1.22769 1.22767 1.22764 1.22759 1.22753
          1.22744 1.2273 1.22713 1.22695 1.22687 1.22687 1.22687 1.22687 1.22696 1.22715 1.22733 1.22746
          1.22755 1.22761 1.22765 1.22768 1.2277 1.22771 1.22772 1.22773 1.22773 1.22774 1.22774 1.22774
          1.22773 1.22773 1.22772 1.22771 1.2277 1.22768 1.22765 1.22761 1.22755 1.22746 1.22733 1.22715
          1.22696 1.22687 1.22687 1.22687 1.22687 1.22698 1.22718 1.22736 1.22749 1.22757 1.22763 1.22767
          1.22769 1.22771 1.22772 1.22773 1.22774 1.22774 1.22774 1.22774 1.22774 1.22774 1.22774 1.22773
          1.22772 1.22771 1.22769 1.22767 1.22763 1.22757 1.22749 1.22736 1.22718 1.22698 1.22687 1.22687
          1.22687 1.22687 1.22699 1.22721 1.22739 1.22752 1.2276 1.22765 1.22768 1.2277 1.22772 1.22773
          1.22774 1.22774 1.22775 1.22775 1.22775 1.22775 1.22775 1.22774 1.22774 1.22773 1.22772 1.2277
          1.22768 1.22765 1.2276 1.22752 1.22739 1.22721 1.22699 1.22687 1.22687 1.22687 1.22687 1.22701
          1.22724 1.22742 1.22754 1.22762 1.22766 1.22769 1.22772 1.22773 1.22774 1.22775 1.22775 1.22775
          1.22776 1.22776 1.22776 1.22775 1.22775 1.22775 1.22774 1.22773 1.22772 1.22769 1.22766 1.22762
          1.22754 1.22742 1.22724 1.22701 1.22687 1.22687 1.22687 1.22688 1.22704 1.22727 1.22745 1.22757
          1.22764 1.22768 1.22771 1.22773 1.22774 1.22775 1.22775 1.22776 1.22776 1.22776 1.22776 1.22776
          1.22776 1.22776 1.22775 1.22775 1.22774 1.22773 1.22771 1.22768 1.22764 1.22757 1.22745 1.22727
          1.22704 1.22688 1.22687 1.22687 1.22688 1.22706 1.22731 1.22748 1.22759 1.22765 1.22769 1.22772
          1.22774 1.22775 1.22775 1.22776 1.22776 1.22777 1.22777 1.22777 1.22777 1.22777 1.22776 1.22776
          1.22775 1.22775 1.22774 1.22772 1.22769 1.22765 1.22759 1.22748 1.22731 1.22706 1.22688 1.22687
          1.22687 1.22689 1.22709 1.22734 1.22751 1.22761 1.22767 1.22771 1.22773 1.22774 1.22775 1.22776
          1.22777 1.22777 1.22777 1.22777 1.22777 1.22777 1.22777 1.22777 1.22777 1.22776 1.22775 1.22774
          1.22773 1.22771 1.22767 1.22761 1.22751 1.22734 1.22709 1.22689 1.22687 1.22687 1.22689 1.22713
          1.22738 1.22754 1.22763 1.22769 1.22772 1.22774 1.22775 1.22776 1.22777 1.22777 1.22777 1.22777
          1.22778 1.22778 1.22778 1.22777 1.22777 1.22777 1.22777 1.22776 1.22775 1.22774 1.22772 1.22769
          1.22763 1.22754 1.22738 1.22713 1.22689 1.22687 1.22687 1.2269 1.22716 1.22742 1.22757 1.22766
          1.2277 1.22773 1.22775 1.22776 1.22777 1.22777 1.22778 1.22778 1.22778 1.22778 1.22778 1.22778
          1.22778 1.22778 1.22778 1.22777 1.22777 1.22776 1.22775 1.22773 1.2277 1.22766 1.22757 1.22742
          1.22716 1.2269 1.22687 1.22687 1.22691 1.2272 1.22746 1.2276 1.22768 1.22772 1.22774 1.22776
          1.22777 1.22777 1.22778 1.22778 1.22778 1.22778 1.22778 1.22778 1.22778 1.22778 1.22778 1.22778
          1.22778 1.22777 1.22777 1.22776 1.22774 1.22772 1.22768 1.2276 1.22746 1.2272 1.22691 1.22687
          1.22687 1.22692 1.22724 1.22749 1.22763 1.22769 1.22773 1.22775 1.22776 1.22777 1.22778 1.22778
          1.22778 1.22778 1.22778 1.22779 1.22779 1.22779 1.22778 1.22778 1.22778 1.22778 1.22778 1.22777
          1.22776 1.22775 1.22773 1.22769 1.22763 1.22749 1.22724 1.22692 1.22687 1.22687 1.22694 1.22729
          1.22753 1.22765 1.22771 1.22774 1.22776 1.22777 1.22778 1.22778 1.22778 1.22779 1.22779 1.22779
          1.22779 1.22779 1.22779 1.22779 1.22779 1.22779 1.22778 1.22778 1.22778 1.22777 1.22776 1.22774
          1.22771 1.22765 1.22753 1.22729 1.22694 1.22687 1.22687 1.22697 1.22734 1.22757 1.22768 1.22773
          1.22775 1.22777 1.22778 1.22778 1.22778 1.22779 1.22779 1.22779 1.22779 1.22779 1.22779 1.22779
          1.22779 1.22779 1.22779 1.22779 1.22778 1.22778 1.22778 1.22777 1.22775 1.22773 1.22768 1.22757
          1.22734 1.22697 1.22687 1.22687 1.227 1.22739 1.2276 1.2277 1.22774 1.22776 1.22777 1.22778
          1.22778 1.22779 1.22779 1.22779 1.22779 1.22779 1.22779 1.22779 1.22779 1.22779 1.22779 1.22779
          1.22779 1.22779 1.22778 1.22778 1.22777 1.22776 1.22774 1.2277 1.2276 1.22739 1.227 1.22687
          1.22687 1.22704 1.22744 1.22764 1.22772 1.22775 1.22777 1.22778 1.22778 1.22779 1.22779 1.22779
          1.22779 1.22779 1.22779 1.22779 1.22779 1.22779 1.22779 1.22779 1.22779 1.22779 1.22779 1.22779
          1.22778 1.22778 1.22777 1.22775 1.22772 1.22764 1.22744 1.22704 1.22687 1.22687 1.22708 1.2275
          1.22767 1.22774 1.22776 1.22778 1.22778 1.22779 1.22779 1.22779 1.22779 1.22779 1.22779 1.22779
          1.22779 1.22779 1.22779 1.22779 1.22779 1.22779 1.22779 1.22779 1.22779 1.22779 1.22778 1.22778
          1.22776 1.22774 1.22767 1.2275 1.22708 1.22687 1.22687 1.22714 1.22755 1.2277 1.22775 1.22777
          1.22778 1.22779 1.22779 1.22779 1.22779 1.22779 1.22779 1.22779 1.22779 1.22779 1.22779 1.22779
          1.22779 1.22779 1.22779 1.22779 1.22779 1.22779 1.22779 1.22779 1.22778 1.22777 1.22775 1.2277
          1.22755 1.22714 1.22687 1.22687 1.22721 1.2276 1.22772 1.22776 1.22778 1.22779 1.22779 1.22779
          1.22779 1.22779 1.22779 1.22779 1.2278 1.2278 1.2278 1.2278 1.2278 1.2278 1.2278 1.22779
          1.22779 1.22779 1.22779 1.22779 1.22779 1.22779 1.22778 1.22776 1.22772 1.2276 1.22721 1.22687
          1.22687 1.22729 1.22764 1.22774 1.22777 1.22778 1.22779 1.22779 1.22779 1.22779 1.2278 1.2278
          1.2278 1.2278 1.2278 1.2278 1.2278 1.2278 1.2278 1.2278 1.2278 1.2278 1.2278 1.22779
          1.22779 1.22779 1.22779 1.22778 1.22777 1.22774 1.22764 1.22729 1.22687 1.22688 1.22737 1.22769
          1.22776 1.22778 1.22779 1.22779 1.22779 1.22779 1.2278 1.2278 1.2278 1.2278 1.2278 1.2278
          1.2278 1.2278 1.2278 1.2278 1.2278 1.2278 1.2278 1.2278 1.2278 1.22779 1.22779 1.22779
          1.22779 1.22778 1.22776 1.22769 1.22737 1.22688 1.2269 1.22746 1.22772 1.22777 1.22779 1.22779
          1.22779 1.2278 1.2278 1.2278 1.2278 1.2278 1.2278 1.2278 1.2278 1.2278 1.2278 1.2278
          1.2278 1.2278 1.2278 1.2278 1.2278 1.2278 1.2278 1.2278 1.22779 1.22779 1.22779 1.22777
          1.22772 1.22746 1.2269 1.22694 1.22756 1.22775 1.22778 1.22779 1.22779 1.2278 1.2278 1.2278
          1.2278 1.2278 1.2278 1.2278 1.2278 1.2278 1.2278 1.2278 1.2278 1.2278 1.2278 1.2278
          1.2278 1.2278 1.2278 1.2278 1.2278 1.2278 1.22779 1.22779 1.22778 1.22775 1.22756 1.22694
          1.22702 1.22764 1.22777 1.22779 1.22779 1.2278 1.2278 1.2278 1.2278 1.2278 1.2278 1.2278
          1.2278 1.2278 1.2278 1.2278 1.2278 1.2278 1.2278 1.2278 1.2278 1.2278 1.2278 1.2278
          1.2278 1.2278 1.2278 1.2278 1.22779 1.22779 1.22777 1.22764 1.22702 1.22716 1.22771 1.22778
          1.22779 1.2278 1.2278 1.2278 1.2278 1.2278 1.2278 1.2278 1.2278 1.2278 1.2278 1.2278
          1.2278 1.2278 1.2278 1.2278 1.2278 1.2278 1.2278 1.2278 1.2278 1.2278 1.2278 1.2278
          1.2278 1.2278 1.22779 1.22778 1.22771 1.22716 1.22737 1.22776 1.22779 1.2278 1.2278 1.2278
          1.2278 1.2278 1.2278 1.2278 1.2278 1.2278 1.2278 1.2278 1.2278 1.2278 1.2278 1.2278
          1.2278 1.2278 1.2278 1.2278 1.2278 1.2278 1.2278 1.2278 1.2278 1.2278 1.2278 1.2278
          1.22779 1.22776 1.22737 1.22762 1.22779 1.2278 1.2278 1.2278 1.2278 1.2278 1.2278 1.2278
          1.2278 1.2278 1.2278 1.2278 1.2278 1.2278 1.2278 1.2278 1.2278 1.2278 1.2278 1.2278
          1.2278 1.2278 1.2278 1.2278 1.2278 1.2278 1.2278 1.2278 1.2278 1.2278 1.22779 1.22762
          1.2278 1.2278 1.2278 1.2278 1.2278 1.2278 1.2278 1.2278 1.2278 1.2278 1.2278 1.2278
          1.2278 1.2278 1.2278 1.2278 1.2278 1.2278 1.2278 1.2278 1.2278 1.2278 1.2278 1.2278
          1.2278 1.2278 1.2278 1.2278 1.2278 1.2278 1.2278 1.2278 1.2278
        </DataArray>
        <DataArray type="Float32" Name="moleFraction_gas^H2O" NumberOfComponents="1" format="ascii">
          0.007 0.00699924 0.007 0.00699906 0.00692524 0.00691776 0.00666154 0.00664161 0.00632239 0.00629631 0.00602233 0.00599592
          0.00579216 0.00576795 0.00562457 0.00560321 0.00550427 0.00548557 0.00541791 0.00540147 0.00535567 0.00534104 0.00531077 0.00529755
          0.0052786 0.00526646 0.0052561 0.00524473 0.00524125 0.00523041 0.00523279 0.00522225 0.00523004 0.0052196 0.00523279 0.00522225
          0.00524125 0.00523041 0.0052561 0.00524473 0.0052786 0.00526646 0.00531077 0.00529755 0.00535567 0.00534104 0.00541791 0.00540147
          0.00550427 0.00548557 0.00562457 0.00560321 0.00579216 0.00576795 0.00602233 0.00599592 0.00632239 0.00629631 0.00666154 0.00664161
          0.00692524 0.00691776 0.00699924 0.00699906 0.007 0.007 0.007 0.00699864 0.00690049 0.00659695 0.00623995 0.00594043
          0.00571817 0.0055599 0.00544807 0.00536874 0.00531209 0.0052715 0.00524258 0.00522243 0.00520917 0.00520163 0.00519918 0.00520163
          0.00520917 0.00522243 0.00524258 0.0052715 0.00531209 0.00536874 0.00544807 0.0055599 0.00571817 0.00594043 0.00623995 0.00659695
          0.00690049 0.00699864 0.007 0.007 0.00699806 0.00688073 0.00654944 0.00618203 0.00588455 0.00566873 0.00551733 0.0054115
          0.00533704 0.00528418 0.00524649 0.00521973 0.00520113 0.00518892 0.00518199 0.00517974 0.00518199 0.00518892 0.00520113 0.00521973
          0.00524649 0.00528418 0.00533704 0.0054115 0.00551733 0.00566873 0.00588455 0.00618203 0.00654944 0.00688073 0.00699806 0.007
          0.007 0.00699726 0.00685822 0.00649916 0.0061228 0.00582857 0.00561986 0.00547568 0.00537602 0.00530646 0.00525739 0.00522257
          0.00519794 0.00518088 0.00516969 0.00516335 0.00516129 0.00516335 0.00516969 0.00518088 0.00519794 0.00522257 0.00525739 0.00530646
          0.00537602 0.00547568 0.00561986 0.00582857 0.0061228 0.00649916 0.00685822 0.00699726 0.007 0.007 0.00699615 0.00683231
          0.00644555 0.00606211 0.00577253 0.00557169 0.00543509 0.00534172 0.00527709 0.0052318 0.00519982 0.00517728 0.00516171 0.00515153
          0.00514576 0.00514389 0.00514576 0.00515153 0.00516171 0.00517728 0.00519982 0.0052318 0.00527709 0.00534172 0.00543509 0.00557169
          0.00577253 0.00606211 0.00644555 0.00683231 0.00699615 0.007 0.007 0.00699461 0.00680261 0.00638859 0.00600012 0.00571662
          0.0055244 0.00539569 0.00530871 0.00524903 0.00520747 0.00517828 0.00515778 0.00514366 0.00513444 0.00512923 0.00512754 0.00512923
          0.00513444 0.00514366 0.00515778 0.00517828 0.00520747 0.00524903 0.00530871 0.00539569 0.0055244 0.00571662 0.00600012 0.00638859
          0.00680261 0.00699461 0.007 0.007 0.0069925 0.00676853 0.00632802 0.00593687 0.005661 0.00547814 0.00535762 0.00527711
          0.00522235 0.00518447 0.00515799 0.00513948 0.00512676 0.00511848 0.0051138 0.00511228 0.0051138 0.00511848 0.00512676 0.00513948
          0.00515799 0.00518447 0.00522235 0.00527711 0.00535762 0.00547814 0.005661 0.00593687 0.00632802 0.00676853 0.0069925 0.007
          0.007 0.0069896 0.00672964 0.00626395 0.00587263 0.00560594 0.00543312 0.00532102 0.00524702 0.00519712 0.00516284 0.005139
          0.00512239 0.00511102 0.00510363 0.00509947 0.00509812 0.00509947 0.00510363 0.00511102 0.00512239 0.005139 0.00516284 0.00519712
          0.00524702 0.00532102 0.00543312 0.00560594 0.00587263 0.00626395 0.00672964 0.0069896 0.007 0.007 0.00698564 0.00668534
          0.0061963 0.00580761 0.00555164 0.00538951 0.00528604 0.00521852 0.0051734 0.00514262 0.00512133 0.00510655 0.00509647 0.00508993
          0.00508624 0.00508505 0.00508624 0.00508993 0.00509647 0.00510655 0.00512133 0.00514262 0.0051734 0.00521852 0.00528604 0.00538951
          0.00555164 0.00580761 0.0061963 0.00668534 0.00698564 0.007 0.007 0.00698024 0.00663518 0.00612534 0.0057422 0.00549844
          0.00534755 0.0052528 0.00519172 0.00515126 0.00512385 0.00510499 0.00509196 0.0050831 0.00507736 0.00507413 0.00507309 0.00507413
          0.00507736 0.0050831 0.00509196 0.00510499 0.00512385 0.00515126 0.00519172 0.0052528 0.00534755 0.00549844 0.0057422 0.00612534
          0.00663518 0.00698024 0.007 0.007 0.00697292 0.00657863 0.00605123 0.00567673 0.0054466 0.00530742 0.00522144 0.00516668
          0.00513074 0.00510656 0.00509001 0.00507863 0.0050709 0.00506591 0.00506311 0.00506221 0.00506311 0.00506591 0.0050709 0.00507863
          0.00509001 0.00510656 0.00513074 0.00516668 0.00522144 0.00530742 0.0054466 0.00567673 0.00605123 0.00657863 0.00697292 0.007
          0.007 0.00696304 0.00651531 0.0059744 0.00561169 0.00539648 0.00526933 0.00519208 0.00514347 0.00511187 0.00509075 0.00507638
          0.00506653 0.00505987 0.00505558 0.00505318 0.0050524 0.00505318 0.00505558 0.00505987 0.00506653 0.00507638 0.00509075 0.00511187
          0.00514347 0.00519208 0.00526933 0.00539648 0.00561169 0.0059744 0.00651531 0.00696304 0.007 0.007 0.00694978 0.00644483
          0.00589525 0.00554752 0.00534838 0.00523347 0.00516481 0.00512214 0.00509466 0.00507642 0.00506408 0.00505567 0.00504999 0.00504634
          0.0050443 0.00504364 0.0050443 0.00504634 0.00504999 0.00505567 0.00506408 0.00507642 0.00509466 0.00512214 0.00516481 0.00523347
          0.00534838 0.00554752 0.00589525 0.00644483 0.00694978 0.007 0.007 0.00693209 0.006367 0.00581444 0.00548479 0.00530265
          0.00520002 0.00513973 0.00510273 0.00507912 0.00506357 0.0050531 0.005046 0.00504122 0.00503815 0.00503644 0.00503589 0.00503644
          0.00503815 0.00504122 0.005046 0.0050531 0.00506357 0.00507912 0.00510273 0.00513973 0.00520002 0.00530265 0.00548479 0.00581444
          0.006367 0.00693209 0.007 0.007 0.00690866 0.00628175 0.00573262 0.00542402 0.00525958 0.00516913 0.0051169 0.00508524
          0.00506523 0.00505215 0.0050434 0.00503748 0.00503352 0.00503098 0.00502956 0.00502911 0.00502956 0.00503098 0.00503352 0.00503748
          0.0050434 0.00505215 0.00506523 0.00508524 0.0051169 0.00516913 0.00525958 0.00542402 0.00573262 0.00628175 0.00690866 0.007
          0.00699999 0.00687786 0.00618931 0.0056507 0.00536582 0.00521948 0.00514093 0.00509635 0.00506967 0.00505298 0.00504214 0.00503493
          0.00503008 0.00502684 0.00502477 0.00502361 0.00502324 0.00502361 0.00502477 0.00502684 0.00503008 0.00503493 0.00504214 0.00505298
          0.00506967 0.00509635 0.00514093 0.00521948 0.00536582 0.0056507 0.00618931 0.00687786 0.00699999 0.00699997 0.00683776 0.00609009
          0.00556957 0.00531071 0.00518259 0.00511551 0.00507809 0.00505599 0.00504229 0.00503347 0.00502764 0.00502372 0.00502112 0.00501946
          0.00501854 0.00501824 0.00501854 0.00501946 0.00502112 0.00502372 0.00502764 0.00503347 0.00504229 0.00505599 0.00507809 0.00511551
          0.00518259 0.00531071 0.00556957 0.00609009 0.00683776 0.00699997 0.00699993 0.00678607 0.00598497 0.00549032 0.00525928 0.00514916
          0.00509293 0.00506211 0.00504415 0.00503312 0.00502608 0.00502144 0.00501835 0.0050163 0.005015 0.00501427 0.00501404 0.00501427
          0.005015 0.0050163 0.00501835 0.00502144 0.00502608 0.00503312 0.00504415 0.00506211 0.00509293 0.00514916 0.00525928 0.00549032
          0.00598497 0.00678607 0.00699993 0.00699983 0.00672025 0.0058751 0.00541404 0.00521201 0.00511933 0.00507318 0.00504835 0.00503406
          0.00502538 0.00501988 0.00501628 0.00501389 0.00501231 0.0050113 0.00501075 0.00501057 0.00501075 0.0050113 0.00501231 0.00501389
          0.00501628 0.00501988 0.00502538 0.00503406 0.00504835 0.00507318 0.00511933 0.00521201 0.00541404 0.0058751 0.00672025 0.00699983
          0.00699958 0.00663761 0.0057622 0.00534192 0.00516935 0.0050932 0.00505625 0.00503672 0.00502564 0.00501897 0.00501478 0.00501205
          0.00501025 0.00500906 0.00500831 0.00500789 0.00500776 0.00500789 0.00500831 0.00500906 0.00501025 0.00501205 0.00501478 0.00501897
          0.00502564 0.00503672 0.00505625 0.0050932 0.00516935 0.00534192 0.0057622 0.00663761 0.00699958 0.00699897 0.00653556 0.00564829
          0.00527506 0.00513163 0.00507079 0.00504202 0.00502711 0.00501875 0.00501378 0.00501067 0.00500867 0.00500735 0.00500648 0.00500593
          0.00500563 0.00500553 0.00500563 0.00500593 0.00500648 0.00500735 0.00500867 0.00501067 0.00501378 0.00501875 0.00502711 0.00504202
          0.00507079 0.00513163 0.00527506 0.00564829 0.00653556 0.00699897 0.00699747 0.006412 0.00553601 0.00521455 0.00509909 0.00505204
          0.00503038 0.00501935 0.00501326 0.00500967 0.00500745 0.00500602 0.00500509 0.00500448 0.00500409 0.00500388 0.00500381 0.00500388
          0.00500409 0.00500448 0.00500509 0.00500602 0.00500745 0.00500967 0.00501326 0.00501935 0.00503038 0.00505204 0.00509909 0.00521455
          0.00553601 0.006412 0.00699747 0.00699391 0.0062659 0.00542813 0.00516126 0.0050718 0.0050368 0.00502112 0.00501328 0.00500902
          0.00500653 0.005005 0.00500402 0.00500339 0.00500297 0.00500271 0.00500257 0.00500252 0.00500257 0.00500271 0.00500297 0.00500339
          0.00500402 0.005005 0.00500653 0.00500902 0.00501328 0.00502112 0.0050368 0.0050718 0.00516126 0.00542813 0.0062659 0.00699391
          0.00698558 0.00609811 0.00532786 0.00511591 0.00504969 0.00502484 0.005014 0.00500869 0.00500584 0.0050042 0.0050032 0.00500256
          0.00500215 0.00500188 0.00500171 0.00500162 0.00500159 0.00500162 0.00500171 0.00500188 0.00500215 0.00500256 0.0050032 0.0050042
          0.00500584 0.00500869 0.005014 0.00502484 0.00504969 0.00511591 0.00532786 0.00609811 0.00698558 0.00696667 0.0059121 0.00523812
          0.00507881 0.00503249 0.00501583 0.00500877 0.00500537 0.00500357 0.00500255 0.00500193 0.00500154 0.00500129 0.00500112 0.00500102
          0.00500097 0.00500095 0.00500097 0.00500102 0.00500112 0.00500129 0.00500154 0.00500193 0.00500255 0.00500357 0.00500537 0.00500877
          0.00501583 0.00503249 0.00507881 0.00523812 0.0059121 0.00696667 0.00692553 0.00571514 0.00516172 0.00504996 0.00501979 0.00500939
          0.0050051 0.00500308 0.00500203 0.00500144 0.00500108 0.00500086 0.00500072 0.00500062 0.00500057 0.00500053 0.00500052 0.00500053
          0.00500057 0.00500062 0.00500072 0.00500086 0.00500108 0.00500144 0.00500203 0.00500308 0.0050051 0.00500939 0.00501979 0.00504996
          0.00516172 0.00571514 0.00692553 0.00683959 0.00551814 0.00510052 0.00502891 0.00501098 0.00500507 0.00500271 0.00500161 0.00500105
          0.00500074 0.00500055 0.00500044 0.00500036 0.00500031 0.00500029 0.00500027 0.00500026 0.00500027 0.00500029 0.00500031 0.00500036
          0.00500044 0.00500055 0.00500074 0.00500105 0.00500161 0.00500271 0.00500507 0.00501098 0.00502891 0.00510052 0.00551814 0.00683959
          0.00667302 0.00533603 0.00505539 0.00501479 0.00500538 0.00500242 0.00500127 0.00500074 0.00500048 0.00500033 0.00500025 0.0050002
          0.00500016 0.00500014 0.00500013 0.00500012 0.00500012 0.00500012 0.00500013 0.00500014 0.00500016 0.0050002 0.00500025 0.00500033
          0.00500048 0.00500074 0.00500127 0.00500242 0.00500538 0.00501479 0.00505539 0.00533603 0.00667302 0.00637747 0.00518465 0.00502561
          0.00500633 0.0050022 0.00500096 0.00500049 0.00500029 0.00500018 0.00500013 0.00500009 0.00500007 0.00500006 0.00500005 0.00500005
          0.00500004 0.00500004 0.00500004 0.00500005 0.00500005 0.00500006 0.00500007 0.00500009 0.00500013 0.00500018 0.00500029 0.00500049
          0.00500096 0.0050022 0.00500633 0.00502561 0.00518465 0.00637747 0.005927 0.00507746 0.00500895 0.00500204 0.00500068 0.00500029