<?xml version="1.0"?>
<VTKFile type="UnstructuredGrid" version="0.1" byte_order="LittleEndian">
  <UnstructuredGrid>
    <Piece NumberOfCells="100" NumberOfPoints="202">
      <PointData Scalars="pressure_w">
        <DataArray type="Float32" Name="pressure_w" NumberOfComponents="1" format="ascii">
          199999 199998 199999 199998 199994 199994 199989 199989 199982 199982 199974 199974
          199965 199965 199954 199954 199942 199942 199927 199927 199911 199911 199892 199892
          199870 199870 199845 199845 199816 199816 199781 199781 199737 199737 199682 199682
          199608 199608 199502 199502 199330 199330 199002 199002 198157 198157 194635 194635
          193042 193042 193033 193033 193025 193025 193017 193017 193009 193009 193001 193001
          192993 192993 192985 192985 192977 192977 192969 192969 192960 192960 192952 192952
          192944 192944 192936 192936 192928 192928 192920 192920 192912 192912 192904 192904
          192896 192896 192888 192888 192880 192880 192872 192872 192863 192863 192855 192855
          192847 192847 192839 192839 192831 192831 192823 192823 192815 192815 192807 192807
          192799 192799 192791 192791 192783 192783 192774 192774 192766 192766 192758 192758
          192750 192750 192742 192742 192734 192734 192726 192726 192718 192718 192710 192710
          192702 192702 192694 192694 192685 192685 192677 192677 192669 192669 192661 192661
          192653 192653 192645 192645 192637 192637 192629 192629 192621 192621 192613 192613
          192605 192605 192596 192596 192588 192588 192580 192580 192572 192572 192564 192564
          192556 192556 192548 192548 192540 192540 192532 192532 192524 192524 192516 192516
          192507 192507 192499 192499 192491 192491 192483 192483 192475 192475 192467 192467
          192459 192459 192451 192451 192443 192443 192435 192435 192427 192427
        </DataArray>
        <DataArray type="Float32" Name="pressure_n" NumberOfComponents="1" format="ascii">
          200523 200574 200523 200574 200597 200597 200612 200612 200622 200622 200629 200629
          200634 200634 200637 200637 200638 200638 200638 200638 200637 200637 200635 200635
          200631 200631 200627 200627 200622 200622 200616 200616 200609 200609 200602 200602
          200594 200594 200586 200586 200577 200577 200568 200568 200558 200558 200550 200550
          200541 200541 200533 200533 200525 200525 200517 200517 200509 200509 200501 200501
          200493 200493 200485 200485 200477 200477 200469 200469 200460 200460 200452 200452
          200444 200444 200436 200436 200428 200428 200420 200420 200412 200412 200404 200404
          200396 200396 200388 200388 200380 200380 200372 200372 200363 200363 200355 200355
          200347 200347 200339 200339 200331 200331 200323 200323 200315 200315 200307 200307
          200299 200299 200291 200291 200283 200283 200274 200274 200266 200266 200258 200258
          200250 200250 200242 200242 200234 200234 200226 200226 200218 200218 200210 200210
          200202 200202 200194 200194 200185 200185 200177 200177 200169 200169 200161 200161
          200153 200153 200145 200145 200137 200137 200129 200129 200121 200121 200113 200113
          200105 200105 200096 200096 200088 200088 200080 200080 200072 200072 200064 200064
          200056 200056 200048 200048 200040 200040 200032 200032 200024 200024 200016 200016
          200007 200007 199999 199999 199991 199991 199983 199983 199975 199975 199967 199967
          199959 199959 199951 199951 199943 199943 199935 199935 199927 199927
        </DataArray>
        <DataArray type="Float32" Name="density_w" NumberOfComponents="1" format="ascii">
          1000 1000 1000 1000 1000 1000 1000 1000 1000 1000 1000 1000
          1000 1000 1000 1000 1000 1000 1000 1000 1000 1000 1000 1000
          1000 1000 1000 1000 1000 1000 1000 1000 1000 1000 1000 1000
          1000 1000 1000 1000 1000 1000 1000 1000 1000 1000 1000 1000
          1000 1000 1000 1000 1000 1000 1000 1000 1000 1000 1000 1000
          1000 1000 1000 1000 1000 1000 1000 1000 1000 1000 1000 1000
          1000 1000 1000 1000 1000 1000 1000 1000 1000 1000 1000 1000
          1000 1000 1000 1000 1000 1000 1000 1000 1000 1000 1000 1000
          1000 1000 1000 1000 1000 1000 1000 1000 1000 1000 1000 1000
          1000 1000 1000 1000 1000 1000 1000 1000 1000 1000 1000 1000
          1000 1000 1000 1000 1000 1000 1000 1000 1000 1000 1000 1000
          1000 1000 1000 1000 1000 1000 1000 1000 1000 1000 1000 1000
          1000 1000 1000 1000 1000 1000 1000 1000 1000 1000 1000 1000
          1000 1000 1000 1000 1000 1000 1000 1000 1000 1000 1000 1000
          1000 1000 1000 1000 1000 1000 1000 1000 1000 1000 1000 1000
          1000 1000 1000 1000 1000 1000 1000 1000 1000 1000 1000 1000
          1000 1000 1000 1000 1000 1000 1000 1000 1000 1000
        </DataArray>
        <DataArray type="Float32" Name="density_n" NumberOfComponents="1" format="ascii">
          890 890 890 890 890 890 890 890 890 890 890 890
          890 890 890 890 890 890 890 890 890 890 890 890
          890 890 890 890 890 890 890 890 890 890 890 890
          890 890 890 890 890 890 890 890 890 890 890 890
          890 890 890 890 890 890 890 890 890 890 890 890
          890 890 890 890 890 890 890 890 890 890 890 890
          890 890 890 890 890 890 890 890 890 890 890 890
          890 890 890 890 890 890 890 890 890 890 890 890
          890 890 890 890 890 890 890 890 890 890 890 890
          890 890 890 890 890 890 890 890 890 890 890 890
          890 890 890 890 890 890 890 890 890 890 890 890
          890 890 890 890 890 890 890 890 890 890 890 890
          890 890 890 890 890 890 890 890 890 890 890 890
          890 890 890 890 890 890 890 890 890 890 890 890
          890 890 890 890 890 890 890 890 890 890 890 890
          890 890 890 890 890 890 890 890 890 890 890 890
          890 890 890 890 890 890 890 890 890 890
        </DataArray>
        <DataArray type="Float32" Name="saturation_w" NumberOfComponents="1" format="ascii">
          0.912218 0.753759 0.912218 0.753759 0.687126 0.687126 0.643908 0.643908 0.610904 0.610904 0.583386 0.583386
          0.559102 0.559102 0.53677 0.53677 0.515557 0.515557 0.494854 0.494854 0.474321 0.474321 0.453501 0.453501
          0.431956 0.431956 0.409239 0.409239 0.384857 0.384857 0.358239 0.358239 0.32869 0.32869 0.295345 0.295345
          0.257118 0.257118 0.212701 0.212701 0.160851 0.160851 0.101934 0.101934 0.0433679 0.0433679 0.00634345 0.00634345
          1.31423e-06 1.31423e-06 1.27903e-23 1.27903e-23 0 0 0 0 0 0 0 0
          0 0 0 0 0 0 0 0 0 0 0 0
          0 0 0 0 0 0 0 0 0 0 0 0
          0 0 0 0 0 0 0 0 0 0 0 0
          0 0 0 0 0 0 0 0 0 0 0 0
          0 0 0 0 0 0 0 0 0 0 0 0
          0 0 0 0 0 0 0 0 0 0 0 0
          0 0 0 0 0 0 0 0 0 0 0 0
          0 0 0 0 0 0 0 0 0 0 0 0
          0 0 0 0 0 0 0 0 0 0 0 0
          0 0 0 0 0 0 0 0 0 0 0 0
          0 0 0 0 0 0 0 0 0 0 0 0
          0 0 0 0 0 0 0 0 0 0
        </DataArray>
        <DataArray type="Float32" Name="saturation_n" NumberOfComponents="1" format="ascii">
          0.0877818 0.246241 0.0877818 0.246241 0.312874 0.312874 0.356092 0.356092 0.389096 0.389096 0.416614 0.416614
          0.440898 0.440898 0.46323 0.46323 0.484443 0.484443 0.505146 0.505146 0.525679 0.525679 0.546499 0.546499
          0.568044 0.568044 0.590761 0.590761 0.615143 0.615143 0.641761 0.641761 0.67131 0.67131 0.704655 0.704655
          0.742882 0.742882 0.787299 0.787299 0.839149 0.839149 0.898066 0.898066 0.956632 0.956632 0.993657 0.993657
          0.999999 0.999999 1 1 1 1 1 1 1 1 1 1
          1 1 1 1 1 1 1 1 1 1 1 1
          1 1 1 1 1 1 1 1 1 1 1 1
          1 1 1 1 1 1 1 1 1 1 1 1
          1 1 1 1 1 1 1 1 1 1 1 1
          1 1 1 1 1 1 1 1 1 1 1 1
          1 1 1 1 1 1 1 1 1 1 1 1
          1 1 1 1 1 1 1 1 1 1 1 1
          1 1 1 1 1 1 1 1 1 1 1 1
          1 1 1 1 1 1 1 1 1 1 1 1
          1 1 1 1 1 1 1 1 1 1 1 1
          1 1 1 1 1 1 1 1 1 1 1 1
          1 1 1 1 1 1 1 1 1 1
        </DataArray>
        <DataArray type="Float32" Name="relativePerm_w" NumberOfComponents="1" format="ascii">
          0.69246 0.322798 0.69246 0.322798 0.222918 0.222918 0.171907 0.171907 0.139281 0.139281 0.115831 0.115831
          0.0977156 0.0977156 0.0830145 0.0830145 0.0706493 0.0706493 0.0599666 0.0599666 0.0506163 0.0506163 0.0422974 0.0422974
          0.0348145 0.0348145 0.0280485 0.0280485 0.0219381 0.0219381 0.0164699 0.0164699 0.011672 0.011672 0.00760885 0.00760885
          0.00437052 0.00437052 0.00204681 0.00204681 0.000669411 0.000669411 0.000107963 0.000107963 3.53733e-06 3.53733e-06 1.6192e-09 1.6192e-09
          2.98326e-24 2.98326e-24 0 0 0 0 0 0 0 0 0 0
          0 0 0 0 0 0 0 0 0 0 0 0
          0 0 0 0 0 0 0 0 0 0 0 0
          0 0 0 0 0 0 0 0 0 0 0 0
          0 0 0 0 0 0 0 0 0 0 0 0
          0 0 0 0 0 0 0 0 0 0 0 0
          0 0 0 0 0 0 0 0 0 0 0 0
          0 0 0 0 0 0 0 0 0 0 0 0
          0 0 0 0 0 0 0 0 0 0 0 0
          0 0 0 0 0 0 0 0 0 0 0 0
          0 0 0 0 0 0 0 0 0 0 0 0
          0 0 0 0 0 0 0 0 0 0 0 0
          0 0 0 0 0 0 0 0 0 0
        </DataArray>
        <DataArray type="Float32" Name="relativePerm_n" NumberOfComponents="1" format="ascii">
          0.00129346 0.0261848 0.00129346 0.0261848 0.0516722 0.0516722 0.0742276 0.0742276 0.0948944 0.0948944 0.114496 0.114496
          0.133625 0.133625 0.152756 0.152756 0.172306 0.172306 0.192685 0.192685 0.214167 0.214167 0.237237 0.237237
          0.262467 0.262467 0.290549 0.290549 0.322354 0.322354 0.359002 0.359002 0.40197 0.40197 0.453226 0.453226
          0.515389 0.515389 0.591797 0.591797 0.685952 0.685952 0.798142 0.798142 0.913424 0.913424 0.987314 0.987314
          0.999997 0.999997 1 1 1 1 1 1 1 1 1 1
          1 1 1 1 1 1 1 1 1 1 1 1
          1 1 1 1 1 1 1 1 1 1 1 1
          1 1 1 1 1 1 1 1 1 1 1 1
          1 1 1 1 1 1 1 1 1 1 1 1
          1 1 1 1 1 1 1 1 1 1 1 1
          1 1 1 1 1 1 1 1 1 1 1 1
          1 1 1 1 1 1 1 1 1 1 1 1
          1 1 1 1 1 1 1 1 1 1 1 1
          1 1 1 1 1 1 1 1 1 1 1 1
          1 1 1 1 1 1 1 1 1 1 1 1
          1 1 1 1 1 1 1 1 1 1 1 1
          1 1 1 1 1 1 1 1 1 1
        </DataArray>
        <DataArray type="Float32" Name="porosity" NumberOfComponents="1" format="ascii">
          0.2 0.2 0.2 0.2 0.2 0.2 0.2 0.2 0.2 0.2 0.2 0.2
          0.2 0.2 0.2 0.2 0.2 0.2 0.2 0.2 0.2 0.2 0.2 0.2
          0.2 0.2 0.2 0.2 0.2 0.2 0.2 0.2 0.2 0.2 0.2 0.2
          0.2 0.2 0.2 0.2 0.2 0.2 0.2 0.2 0.2 0.2 0.2 0.2
          0.2 0.2 0.2 0.2 0.2 0.2 0.2 0.2 0.2 0.2 0.2 0.2
          0.2 0.2 0.2 0.2 0.2 0.2 0.2 0.2 0.2 0.2 0.2 0.2
          0.2 0.2 0.2 0.2 0.2 0.2 0.2 0.2 0.2 0.2 0.2 0.2
          0.2 0.2 0.2 0.2 0.2 0.2 0.2 0.2 0.2 0.2 0.2 0.2
          0.2 0.2 0.2 0.2 0.2 0.2 0.2 0.2 0.2 0.2 0.2 0.2
          0.2 0.2 0.2 0.2 0.2 0.2 0.2 0.2 0.2 0.2 0.2 0.2
          0.2 0.2 0.2 0.2 0.2 0.2 0.2 0.2 0.2 0.2 0.2 0.2
          0.2 0.2 0.2 0.2 0.2 0.2 0.2 0.2 0.2 0.2 0.2 0.2
          0.2 0.2 0.2 0.2 0.2 0.2 0.2 0.2 0.2 0.2 0.2 0.2
          0.2 0.2 0.2 0.2 0.2 0.2 0.2 0.2 0.2 0.2 0.2 0.2
          0.2 0.2 0.2 0.2 0.2 0.2 0.2 0.2 0.2 0.2 0.2 0.2
          0.2 0.2 0.2 0.2 0.2 0.2 0.2 0.2 0.2 0.2 0.2 0.2
          0.2 0.2 0.2 0.2 0.2 0.2 0.2 0.2 0.2 0.2
        </DataArray>
        <DataArray type="Float32" Name="temperature" NumberOfComponents="1" format="ascii">
          283.15 283.15 283.15 283.15 283.15 283.15 283.15 283.15 283.15 283.15 283.15 283.15
          283.15 283.15 283.15 283.15 283.15 283.15 283.15 283.15 283.15 283.15 283.15 283.15
          283.15 283.15 283.15 283.15 283.15 283.15 283.15 283.15 283.15 283.15 283.15 283.15
          283.15 283.15 283.15 283.15 283.15 283.15 283.15 283.15 283.15 283.15 283.15 283.15
          283.15 283.15 283.15 283.15 283.15 283.15 283.15 283.15 283.15 283.15 283.15 283.15
          283.15 283.15 283.15 283.15 283.15 283.15 283.15 283.15 283.15 283.15 283.15 283.15
          283.15 283.15 283.15 283.15 283.15 283.15 283.15 283.15 283.15 283.15 283.15 283.15
          283.15 283.15 283.15 283.15 283.15 283.15 283.15 283.15 283.15 283.15 283.15 283.15
          283.15 283.15 283.15 283.15 283.15 283.15 283.15 283.15 283.15 283.15 283.15 283.15
          283.15 283.15 283.15 283.15 283.15 283.15 283.15 283.15 283.15 283.15 283.15 283.15
          283.15 283.15 283.15 283.15 283.15 283.15 283.15 283.15 283.15 283.15 283.15 283.15
          283.15 283.15 283.15 283.15 283.15 283.15 283.15 283.15 283.15 283.15 283.15 283.15
          283.15 283.15 283.15 283.15 283.15 283.15 283.15 283.15 283.15 283.15 283.15 283.15
          283.15 283.15 283.15 283.15 283.15 283.15 283.15 283.15 283.15 283.15 283.15 283.15
          283.15 283.15 283.15 283.15 283.15 283.15 283.15 283.15 283.15 283.15 283.15 283.15
          283.15 283.15 283.15 283.15 283.15 283.15 283.15 283.15 283.15 283.15 283.15 283.15
          283.15 283.15 283.15 283.15 283.15 283.15 283.15 283.15 283.15 283.15
        </DataArray>
      </PointData>
      <Points>
        <DataArray type="Float32" Name="Coordinates" NumberOfComponents="3" format="ascii">
          0 0 0 3 0 0 0 60 0 3 60 0
          6 0 0 6 60 0 9 0 0 9 60 0
          12 0 0 12 60 0 15 0 0 15 60 0
          18 0 0 18 60 0 21 0 0 21 60 0
          24 0 0 24 60 0 27 0 0 27 60 0
          30 0 0 30 60 0 33 0 0 33 60 0
          36 0 0 36 60 0 39 0 0 39 60 0
          42 0 0 42 60 0 45 0 0 45 60 0
          48 0 0 48 60 0 51 0 0 51 60 0
          54 0 0 54 60 0 57 0 0 57 60 0
          60 0 0 60 60 0 63 0 0 63 60 0
          66 0 0 66 60 0 69 0 0 69 60 0
          72 0 0 72 60 0 75 0 0 75 60 0
          78 0 0 78 60 0 81 0 0 81 60 0
          84 0 0 84 60 0 87 0 0 87 60 0
          90 0 0 90 60 0 93 0 0 93 60 0
          96 0 0 96 60 0 99 0 0 99 60 0
          102 0 0 102 60 0 105 0 0 105 60 0
          108 0 0 108 60 0 111 0 0 111 60 0
          114 0 0 114 60 0 117 0 0 117 60 0
          120 0 0 120 60 0 123 0 0 123 60 0
          126 0 0 126 60 0 129 0 0 129 60 0
          132 0 0 132 60 0 135 0 0 135 60 0
          138 0 0 138 60 0 141 0 0 141 60 0
          144 0 0 144 60 0 147 0 0 147 60 0
          150 0 0 150 60 0 153 0 0 153 60 0
          156 0 0 156 60 0 159 0 0 159 60 0
          162 0 0 162 60 0 165 0 0 165 60 0
          168 0 0 168 60 0 171 0 0 171 60 0
          174 0 0 174 60 0 177 0 0 177 60 0
          180 0 0 180 60 0 183 0 0 183 60 0
          186 0 0 186 60 0 189 0 0 189 60 0
          192 0 0 192 60 0 195 0 0 195 60 0
          198 0 0 198 60 0 201 0 0 201 60 0
          204 0 0 204 60 0 207 0 0 207 60 0
          210 0 0 210 60 0 213 0 0 213 60 0
          216 0 0 216 60 0 219 0 0 219 60 0
          222 0 0 222 60 0 225 0 0 225 60 0
          228 0 0 228 60 0 231 0 0 231 60 0
          234 0 0 234 60 0 237 0 0 237 60 0
          240 0 0 240 60 0 243 0 0 243 60 0
          246 0 0 246 60 0 249 0 0 249 60 0
          252 0 0 252 60 0 255 0 0 255 60 0
          258 0 0 258 60 0 261 0 0 261 60 0
          264 0 0 264 60 0 267 0 0 267 60 0
          270 0 0 270 60 0 273 0 0 273 60 0
          276 0 0 276 60 0 279 0 0 279 60 0
          282 0 0 282 60 0 285 0 0 285 60 0
          288 0 0 288 60 0 291 0 0 291 60 0
          294 0 0 294 60 0 297 0 0 297 60 0
          300 0 0 300 60 0
        </DataArray>
      </Points>
      <Cells>
        <DataArray type="Int32" Name="connectivity" NumberOfComponents="1" format="ascii">
          0 1 3 2 1 4 5 3 4 6 7 5
          6 8 9 7 8 10 11 9 10 12 13 11
          12 14 15 13 14 16 17 15 16 18 19 17
          18 20 21 19 20 22 23 21 22 24 25 23
          24 26 27 25 26 28 29 27 28 30 31 29
          30 32 33 31 32 34 35 33 34 36 37 35
          36 38 39 37 38 40 41 39 40 42 43 41
          42 44 45 43 44 46 47 45 46 48 49 47
          48 50 51 49 50 52 53 51 52 54 55 53
          54 56 57 55 56 58 59 57 58 60 61 59
          60 62 63 61 62 64 65 63 64 66 67 65
          66 68 69 67 68 70 71 69 70 72 73 71
          72 74 75 73 74 76 77 75 76 78 79 77
          78 80 81 79 80 82 83 81 82 84 85 83
          84 86 87 85 86 88 89 87 88 90 91 89
          90 92 93 91 92 94 95 93 94 96 97 95
          96 98 99 97 98 100 101 99 100 102 103 101
          102 104 105 103 104 106 107 105 106 108 109 107
          108 110 111 109 110 112 113 111 112 114 115 113
          114 116 117 115 116 118 119 117 118 120 121 119
          120 122 123 121 122 124 125 123 124 126 127 125
          126 128 129 127 128 130 131 129 130 132 133 131
          132 134 135 133 134 136 137 135 136 138 139 137
          138 140 141 139 140 142 143 141 142 144 145 143
          144 146 147 145 146 148 149 147 148 150 151 149
          150 152 153 151 152 154 155 153 154 156 157 155
          156 158 159 157 158 160 161 159 160 162 163 161
          162 164 165 163 164 166 167 165 166 168 169 167
          168 170 171 169 170 172 173 171 172 174 175 173
          174 176 177 175 176 178 179 177 178 180 181 179
          180 182 183 181 182 184 185 183 184 186 187 185
          186 188 189 187 188 190 191 189 190 192 193 191
          192 194 195 193 194 196 197 195 196 198 199 197
          198 200 201 199
        </DataArray>
        <DataArray type="Int32" Name="offsets" NumberOfComponents="1" format="ascii">
          4 8 12 16 20 24 28 32 36 40 44 48
          52 56 60 64 68 72 76 80 84 88 92 96
          100 104 108 112 116 120 124 128 132 136 140 144
          148 152 156 160 164 168 172 176 180 184 188 192
          196 200 204 208 212 216 220 224 228 232 236 240
          244 248 252 256 260 264 268 272 276 280 284 288
          292 296 300 304 308 312 316 320 324 328 332 336
          340 344 348 352 356 360 364 368 372 376 380 384
          388 392 396 400
        </DataArray>
        <DataArray type="UInt8" Name="types" NumberOfComponents="1" format="ascii">
          9 9 9 9 9 9 9 9 9 9 9 9
          9 9 9 9 9 9 9 9 9 9 9 9
          9 9 9 9 9 9 9 9 9 9 9 9
          9 9 9 9 9 9 9 9 9 9 9 9
          9 9 9 9 9 9 9 9 9 9 9 9
          9 9 9 9 9 9 9 9 9 9 9 9
          9 9 9 9 9 9 9 9 9 9 9 9
          9 9 9 9 9 9 9 9 9 9 9 9
          9 9 9 9
        </DataArray>
      </Cells>
    </Piece>
  </UnstructuredGrid>
</VTKFile>
