<?xml version="1.0"?>
<VTKFile type="UnstructuredGrid" version="0.1" byte_order="LittleEndian">
  <UnstructuredGrid>
    <Piece NumberOfCells="100" NumberOfPoints="202">
      <CellData Scalars="wetting pressure" Vectors="wetting-velocity">
        <DataArray type="Float32" Name="wetting pressure" NumberOfComponents="1" format="ascii">
          199999 199996 199991 199985 199977 199968 199957 199944 199929 199913 199894 199872
          199847 199818 199783 199740 199685 199611 199502 199319 198923 197482 193044 193004
          192996 192988 192979 192971 192963 192955 192947 192939 192931 192923 192915 192907
          192899 192890 192882 192874 192866 192858 192850 192842 192834 192826 192818 192810
          192801 192793 192785 192777 192769 192761 192753 192745 192737 192729 192721 192712
          192704 192696 192688 192680 192672 192664 192656 192648 192640 192632 192624 192615
          192607 192599 192591 192583 192575 192567 192559 192551 192543 192534 192526 192518
          192510 192502 192494 192486 192478 192470 192462 192454 192446 192437 192429 192421
          192413 192405 192397 192389
        </DataArray>
        <DataArray type="Float32" Name="nonwetting pressure" NumberOfComponents="1" format="ascii">
          200565 200598 200614 200625 200632 200637 200641 200642 200641 200639 200636 200632
          200627 200621 200614 200606 200596 200585 200570 200548 200507 200385 200512 200504
          200496 200488 200479 200471 200463 200455 200447 200439 200431 200423 200415 200407
          200399 200390 200382 200374 200366 200358 200350 200342 200334 200326 200318 200310
          200301 200293 200285 200277 200269 200261 200253 200245 200237 200229 200221 200212
          200204 200196 200188 200180 200172 200164 200156 200148 200140 200132 200124 200115
          200107 200099 200091 200083 200075 200067 200059 200051 200043 200034 200026 200018
          200010 200002 199994 199986 199978 199970 199962 199954 199946 199937 199929 199921
          199913 199905 199897 199889
        </DataArray>
        <DataArray type="Float32" Name="capillary pressure" NumberOfComponents="1" format="ascii">
          565.113 601.402 622.959 640.117 655.337 669.702 683.868 698.341 711.99 726.479 742.219 759.713
          779.63 802.902 830.903 865.785 911.176 973.789 1067.78 1229.32 1584.51 2903.03 7467.7 7500
          7500 7500 7500 7500 7500 7500 7500 7500 7500 7500 7500 7500
          7500 7500 7500 7500 7500 7500 7500 7500 7500 7500 7500 7500
          7500 7500 7500 7500 7500 7500 7500 7500 7500 7500 7500 7500
          7500 7500 7500 7500 7500 7500 7500 7500 7500 7500 7500 7500
          7500 7500 7500 7500 7500 7500 7500 7500 7500 7500 7500 7500
          7500 7500 7500 7500 7500 7500 7500 7500 7500 7500 7500 7500
          7500 7500 7500 7500
        </DataArray>
        <DataArray type="Float32" Name="wetting saturation" NumberOfComponents="1" format="ascii">
          0.782859 0.691244 0.64424 0.610172 0.582165 0.557464 0.534615 0.512691 0.493231 0.473761 0.453891 0.433239
          0.411401 0.387916 0.362234 0.333662 0.301285 0.263839 0.21951 0.165728 0.0999435 0.0299922 0.000137338 6.77441e-17
          0 0 0 0 0 0 0 0 0 0 0 0
          0 0 0 0 0 0 0 0 0 0 0 0
          0 0 0 0 0 0 0 0 0 0 0 0
          0 0 0 0 0 0 0 0 0 0 0 0
          0 0 0 0 0 0 0 0 0 0 0 0
          0 0 0 0 0 0 0 0 0 0 0 0
          0 0 0 0
        </DataArray>
        <DataArray type="Float32" Name="nonwetting saturation" NumberOfComponents="1" format="ascii">
          0.217141 0.308756 0.35576 0.389828 0.417835 0.442536 0.465385 0.487309 0.506769 0.526239 0.546109 0.566761
          0.588599 0.612085 0.637766 0.666338 0.698715 0.736161 0.78049 0.834272 0.900056 0.970008 0.999863 1
          1 1 1 1 1 1 1 1 1 1 1 1
          1 1 1 1 1 1 1 1 1 1 1 1
          1 1 1 1 1 1 1 1 1 1 1 1
          1 1 1 1 1 1 1 1 1 1 1 1
          1 1 1 1 1 1 1 1 1 1 1 1
          1 1 1 1 1 1 1 1 1 1 1 1
          1 1 1 1
        </DataArray>
        <DataArray type="Float32" Name="wetting-velocity" NumberOfComponents="3" format="ascii">
          3.83966e-05 0 0 3.79795e-05 0 0 3.74649e-05 0 0 3.68872e-05 0 0
          3.62539e-05 0 0 3.55648e-05 0 0 3.48157e-05 0 0 3.39993e-05 0 0
          3.31113e-05 0 0 3.21456e-05 0 0 3.10893e-05 0 0 2.99256e-05 0 0
          2.86333e-05 0 0 2.71851e-05 0 0 2.55453e-05 0 0 2.36667e-05 0 0
          2.14852e-05 0 0 1.89107e-05 0 0 1.58132e-05 0 0 1.20057e-05 0 0
          7.30895e-06 0 0 2.41762e-06 0 0 5.72774e-08 0 0 1.87473e-19 0 0
          0 0 0 0 0 0 0 0 0 0 0 0
          0 0 0 0 0 0 0 0 0 0 0 0
          0 0 0 0 0 0 0 0 0 0 0 0
          0 0 0 0 0 0 0 0 0 0 0 0
          0 0 0 0 0 0 0 0 0 0 0 0
          0 0 0 0 0 0 0 0 0 0 0 0
          0 0 0 0 0 0 0 0 0 0 0 0
          0 0 0 0 0 0 0 0 0 0 0 0
          0 0 0 0 0 0 0 0 0 0 0 0
          0 0 0 0 0 0 0 0 0 0 0 0
          0 0 0 0 0 0 0 0 0 0 0 0
          0 0 0 0 0 0 0 0 0 0 0 0
          0 0 0 0 0 0 0 0 0 0 0 0
          0 0 0 0 0 0 0 0 0 0 0 0
          0 0 0 0 0 0 0 0 0 0 0 0
          0 0 0 0 0 0 0 0 0 0 0 0
          0 0 0 0 0 0 0 0 0 0 0 0
          0 0 0 0 0 0 0 0 0 0 0 0
          0 0 0 0 0 0 0 0 0 0 0 0
        </DataArray>
        <DataArray type="Float32" Name="non-wetting-velocity" NumberOfComponents="3" format="ascii">
          -4.68876e-06 0 0 -4.27166e-06 0 0 -3.75699e-06 0 0 -3.17937e-06 0 0
          -2.54604e-06 0 0 -1.8569e-06 0 0 -1.10781e-06 0 0 -2.91484e-07 0 0
          5.96593e-07 0 0 1.56226e-06 0 0 2.61861e-06 0 0 3.78231e-06 0 0
          5.0746e-06 0 0 6.52281e-06 0 0 8.16258e-06 0 0 1.00411e-05 0 0
          1.22227e-05 0 0 1.47971e-05 0 0 1.78947e-05 0 0 2.17021e-05 0 0
          2.63989e-05 0 0 3.12902e-05 0 0 3.36289e-05 0 0 3.36861e-05 0 0
          3.37079e-05 0 0 3.37079e-05 0 0 3.37079e-05 0 0 3.37079e-05 0 0
          3.37079e-05 0 0 3.37079e-05 0 0 3.37079e-05 0 0 3.37079e-05 0 0
          3.37079e-05 0 0 3.37079e-05 0 0 3.37079e-05 0 0 3.37079e-05 0 0
          3.37079e-05 0 0 3.37079e-05 0 0 3.37079e-05 0 0 3.37079e-05 0 0
          3.37079e-05 0 0 3.37079e-05 0 0 3.37079e-05 0 0 3.37079e-05 0 0
          3.37079e-05 0 0 3.37079e-05 0 0 3.37079e-05 0 0 3.37079e-05 0 0
          3.37079e-05 0 0 3.37079e-05 0 0 3.37079e-05 0 0 3.37079e-05 0 0
          3.37079e-05 0 0 3.37079e-05 0 0 3.37079e-05 0 0 3.37079e-05 0 0
          3.37079e-05 0 0 3.37079e-05 0 0 3.37079e-05 0 0 3.37079e-05 0 0
          3.37079e-05 0 0 3.37079e-05 0 0 3.37079e-05 0 0 3.37079e-05 0 0
          3.37079e-05 0 0 3.37079e-05 0 0 3.37079e-05 0 0 3.37079e-05 0 0
          3.37079e-05 0 0 3.37079e-05 0 0 3.37079e-05 0 0 3.37079e-05 0 0
          3.37079e-05 0 0 3.37079e-05 0 0 3.37079e-05 0 0 3.37079e-05 0 0
          3.37079e-05 0 0 3.37079e-05 0 0 3.37079e-05 0 0 3.37079e-05 0 0
          3.37079e-05 0 0 3.37079e-05 0 0 3.37079e-05 0 0 3.37079e-05 0 0
          3.37079e-05 0 0 3.37079e-05 0 0 3.37079e-05 0 0 3.37079e-05 0 0
          3.37079e-05 0 0 3.37079e-05 0 0 3.37079e-05 0 0 3.37079e-05 0 0
          3.37079e-05 0 0 3.37079e-05 0 0 3.37079e-05 0 0 3.37079e-05 0 0
          3.37079e-05 0 0 3.37079e-05 0 0 3.37079e-05 0 0 3.37079e-05 0 0
        </DataArray>
      </CellData>
      <Points>
        <DataArray type="Float32" Name="Coordinates" NumberOfComponents="3" format="ascii">
          0 0 0 3 0 0 0 60 0 3 60 0
          6 0 0 6 60 0 9 0 0 9 60 0
          12 0 0 12 60 0 15 0 0 15 60 0
          18 0 0 18 60 0 21 0 0 21 60 0
          24 0 0 24 60 0 27 0 0 27 60 0
          30 0 0 30 60 0 33 0 0 33 60 0
          36 0 0 36 60 0 39 0 0 39 60 0
          42 0 0 42 60 0 45 0 0 45 60 0
          48 0 0 48 60 0 51 0 0 51 60 0
          54 0 0 54 60 0 57 0 0 57 60 0
          60 0 0 60 60 0 63 0 0 63 60 0
          66 0 0 66 60 0 69 0 0 69 60 0
          72 0 0 72 60 0 75 0 0 75 60 0
          78 0 0 78 60 0 81 0 0 81 60 0
          84 0 0 84 60 0 87 0 0 87 60 0
          90 0 0 90 60 0 93 0 0 93 60 0
          96 0 0 96 60 0 99 0 0 99 60 0
          102 0 0 102 60 0 105 0 0 105 60 0
          108 0 0 108 60 0 111 0 0 111 60 0
          114 0 0 114 60 0 117 0 0 117 60 0
          120 0 0 120 60 0 123 0 0 123 60 0
          126 0 0 126 60 0 129 0 0 129 60 0
          132 0 0 132 60 0 135 0 0 135 60 0
          138 0 0 138 60 0 141 0 0 141 60 0
          144 0 0 144 60 0 147 0 0 147 60 0
          150 0 0 150 60 0 153 0 0 153 60 0
          156 0 0 156 60 0 159 0 0 159 60 0
          162 0 0 162 60 0 165 0 0 165 60 0
          168 0 0 168 60 0 171 0 0 171 60 0
          174 0 0 174 60 0 177 0 0 177 60 0
          180 0 0 180 60 0 183 0 0 183 60 0
          186 0 0 186 60 0 189 0 0 189 60 0
          192 0 0 192 60 0 195 0 0 195 60 0
          198 0 0 198 60 0 201 0 0 201 60 0
          204 0 0 204 60 0 207 0 0 207 60 0
          210 0 0 210 60 0 213 0 0 213 60 0
          216 0 0 216 60 0 219 0 0 219 60 0
          222 0 0 222 60 0 225 0 0 225 60 0
          228 0 0 228 60 0 231 0 0 231 60 0
          234 0 0 234 60 0 237 0 0 237 60 0
          240 0 0 240 60 0 243 0 0 243 60 0
          246 0 0 246 60 0 249 0 0 249 60 0
          252 0 0 252 60 0 255 0 0 255 60 0
          258 0 0 258 60 0 261 0 0 261 60 0
          264 0 0 264 60 0 267 0 0 267 60 0
          270 0 0 270 60 0 273 0 0 273 60 0
          276 0 0 276 60 0 279 0 0 279 60 0
          282 0 0 282 60 0 285 0 0 285 60 0
          288 0 0 288 60 0 291 0 0 291 60 0
          294 0 0 294 60 0 297 0 0 297 60 0
          300 0 0 300 60 0
        </DataArray>
      </Points>
      <Cells>
        <DataArray type="Int32" Name="connectivity" NumberOfComponents="1" format="ascii">
          0 1 3 2 1 4 5 3 4 6 7 5
          6 8 9 7 8 10 11 9 10 12 13 11
          12 14 15 13 14 16 17 15 16 18 19 17
          18 20 21 19 20 22 23 21 22 24 25 23
          24 26 27 25 26 28 29 27 28 30 31 29
          30 32 33 31 32 34 35 33 34 36 37 35
          36 38 39 37 38 40 41 39 40 42 43 41
          42 44 45 43 44 46 47 45 46 48 49 47
          48 50 51 49 50 52 53 51 52 54 55 53
          54 56 57 55 56 58 59 57 58 60 61 59
          60 62 63 61 62 64 65 63 64 66 67 65
          66 68 69 67 68 70 71 69 70 72 73 71
          72 74 75 73 74 76 77 75 76 78 79 77
          78 80 81 79 80 82 83 81 82 84 85 83
          84 86 87 85 86 88 89 87 88 90 91 89
          90 92 93 91 92 94 95 93 94 96 97 95
          96 98 99 97 98 100 101 99 100 102 103 101
          102 104 105 103 104 106 107 105 106 108 109 107
          108 110 111 109 110 112 113 111 112 114 115 113
          114 116 117 115 116 118 119 117 118 120 121 119
          120 122 123 121 122 124 125 123 124 126 127 125
          126 128 129 127 128 130 131 129 130 132 133 131
          132 134 135 133 134 136 137 135 136 138 139 137
          138 140 141 139 140 142 143 141 142 144 145 143
          144 146 147 145 146 148 149 147 148 150 151 149
          150 152 153 151 152 154 155 153 154 156 157 155
          156 158 159 157 158 160 161 159 160 162 163 161
          162 164 165 163 164 166 167 165 166 168 169 167
          168 170 171 169 170 172 173 171 172 174 175 173
          174 176 177 175 176 178 179 177 178 180 181 179
          180 182 183 181 182 184 185 183 184 186 187 185
          186 188 189 187 188 190 191 189 190 192 193 191
          192 194 195 193 194 196 197 195 196 198 199 197
          198 200 201 199
        </DataArray>
        <DataArray type="Int32" Name="offsets" NumberOfComponents="1" format="ascii">
          4 8 12 16 20 24 28 32 36 40 44 48
          52 56 60 64 68 72 76 80 84 88 92 96
          100 104 108 112 116 120 124 128 132 136 140 144
          148 152 156 160 164 168 172 176 180 184 188 192
          196 200 204 208 212 216 220 224 228 232 236 240
          244 248 252 256 260 264 268 272 276 280 284 288
          292 296 300 304 308 312 316 320 324 328 332 336
          340 344 348 352 356 360 364 368 372 376 380 384
          388 392 396 400
        </DataArray>
        <DataArray type="UInt8" Name="types" NumberOfComponents="1" format="ascii">
          9 9 9 9 9 9 9 9 9 9 9 9
          9 9 9 9 9 9 9 9 9 9 9 9
          9 9 9 9 9 9 9 9 9 9 9 9
          9 9 9 9 9 9 9 9 9 9 9 9
          9 9 9 9 9 9 9 9 9 9 9 9
          9 9 9 9 9 9 9 9 9 9 9 9
          9 9 9 9 9 9 9 9 9 9 9 9
          9 9 9 9 9 9 9 9 9 9 9 9
          9 9 9 9
        </DataArray>
      </Cells>
    </Piece>
  </UnstructuredGrid>
</VTKFile>
