<?xml version="1.0"?>
<VTKFile type="UnstructuredGrid" version="0.1" byte_order="LittleEndian">
  <UnstructuredGrid>
    <Piece NumberOfCells="256" NumberOfPoints="289">
      <PointData Scalars="pressure_liquid">
        <DataArray type="Float32" Name="pressure_liquid" NumberOfComponents="1" format="ascii">
          9.90279e+06 9.90727e+06 9.88437e+06 9.88347e+06 9.908e+06 9.88377e+06 9.90819e+06 9.88388e+06 9.90817e+06 9.88388e+06 9.908e+06 9.88379e+06
          9.90772e+06 9.88367e+06 9.90731e+06 9.88358e+06 9.90706e+06 9.88341e+06 9.90706e+06 9.88336e+06 9.90728e+06 9.88336e+06 9.90749e+06 9.88343e+06
          9.90767e+06 9.88352e+06 9.90778e+06 9.88358e+06 9.90771e+06 9.88354e+06 9.9071e+06 9.88333e+06 9.9028e+06 9.88433e+06 9.86052e+06 9.85991e+06
          9.85972e+06 9.85968e+06 9.85966e+06 9.85962e+06 9.85959e+06 9.85957e+06 9.8595e+06 9.85944e+06 9.85938e+06 9.85938e+06 9.85941e+06 9.85946e+06
          9.85954e+06 9.85979e+06 9.86048e+06 9.8362e+06 9.83582e+06 9.83559e+06 9.8355e+06 9.83545e+06 9.83544e+06 9.83545e+06 9.83547e+06 9.83545e+06
          9.8354e+06 9.83533e+06 9.83529e+06 9.8353e+06 9.83534e+06 9.83546e+06 9.83572e+06 9.83616e+06 9.81176e+06 9.81152e+06 9.81135e+06 9.81126e+06
          9.81122e+06 9.81122e+06 9.81126e+06 9.81131e+06 9.81132e+06 9.81129e+06 9.81122e+06 9.81117e+06 9.81116e+06 9.81118e+06 9.81128e+06 9.81147e+06
          9.81174e+06 9.78729e+06 9.78714e+06 9.78704e+06 9.78697e+06 9.78695e+06 9.78697e+06 9.78703e+06 9.78711e+06 9.78715e+06 9.78714e+06 9.78708e+06
          9.78703e+06 9.78699e+06 9.78699e+06 9.78703e+06 9.78713e+06 9.78728e+06 9.7628e+06 9.76272e+06 9.76267e+06 9.76264e+06 9.76264e+06 9.76268e+06
          9.76277e+06 9.76288e+06 9.76296e+06 9.76297e+06 9.76293e+06 9.76286e+06 9.7628e+06 9.76276e+06 9.76275e+06 9.76277e+06 9.76281e+06 9.73831e+06
          9.73828e+06 9.73826e+06 9.73826e+06 9.73829e+06 9.73836e+06 9.73848e+06 9.73864e+06 9.73876e+06 9.73881e+06 9.73878e+06 9.7387e+06 9.73861e+06
          9.73853e+06 9.73845e+06 9.73839e+06 9.73833e+06 9.71381e+06 9.71383e+06 9.71383e+06 9.71386e+06 9.71391e+06 9.71401e+06 9.71418e+06 9.71441e+06
          9.7146e+06 9.71468e+06 9.71466e+06 9.71455e+06 9.71441e+06 9.71427e+06 9.71414e+06 9.714e+06 9.71385e+06 9.6893e+06 9.68935e+06 9.68938e+06
          9.68943e+06 9.6895e+06 9.68962e+06 9.68983e+06 9.69012e+06 9.69036e+06 9.69045e+06 9.69042e+06 9.69027e+06 9.6901e+06 9.68992e+06 9.68975e+06
          9.68956e+06 9.68934e+06 9.66478e+06 9.66486e+06 9.66492e+06 9.66499e+06 9.66508e+06 9.66522e+06 9.66545e+06 9.66574e+06 9.66597e+06 9.66605e+06
          9.66599e+06 9.66584e+06 9.66566e+06 9.66548e+06 9.66528e+06 9.66507e+06 9.66483e+06 9.64028e+06 9.64038e+06 9.64047e+06 9.64056e+06 9.64066e+06
          9.64082e+06 9.64109e+06 9.64142e+06 9.64167e+06 9.64173e+06 9.64163e+06 9.64143e+06 9.64123e+06 9.64103e+06 9.64082e+06 9.64059e+06 9.64032e+06
          9.61578e+06 9.61593e+06 9.61604e+06 9.61612e+06 9.61622e+06 9.61642e+06 9.61678e+06 9.61723e+06 9.61752e+06 9.61754e+06 9.61733e+06 9.61705e+06
          9.6168e+06 9.6166e+06 9.61638e+06 9.61613e+06 9.61583e+06 9.59134e+06 9.59154e+06 9.59165e+06 9.59174e+06 9.59174e+06 9.59199e+06 9.59304e+06
          9.59448e+06 9.59508e+06 9.59452e+06 9.59335e+06 9.59262e+06 9.59238e+06 9.59222e+06 9.59197e+06 9.59172e+06 9.59138e+06 9.56757e+06 9.56745e+06
          9.56718e+06 9.56784e+06 9.57057e+06 9.57446e+06 9.57812e+06 9.58056e+06 9.58132e+06 9.58029e+06 9.57767e+06 9.57401e+06 9.57037e+06 9.56799e+06
          9.56744e+06 9.56757e+06 9.56754e+06 9.54666e+06 9.54623e+06 9.55091e+06 9.55675e+06 9.562e+06 9.56658e+06 9.57021e+06 9.57251e+06 9.57322e+06
          9.57226e+06 9.56976e+06 9.56604e+06 9.56146e+06 9.55626e+06 9.55051e+06 9.5461e+06 9.54661e+06 9.52546e+06 9.53403e+06 9.54235e+06 9.54912e+06
          9.55478e+06 9.55942e+06 9.56294e+06 9.56514e+06 9.56581e+06 9.5649e+06 9.56254e+06 9.55892e+06 9.55425e+06 9.54859e+06 9.54188e+06 9.53368e+06
          9.52546e+06
        </DataArray>
        <DataArray type="Float32" Name="pressure_gas" NumberOfComponents="1" format="ascii">
          9.91286e+06 9.91727e+06 9.89437e+06 9.89347e+06 9.918e+06 9.89377e+06 9.91819e+06 9.89388e+06 9.91817e+06 9.89388e+06 9.91803e+06 9.89389e+06
          9.91804e+06 9.89414e+06 9.91886e+06 9.89505e+06 9.91863e+06 9.89495e+06 9.91862e+06 9.89486e+06 9.91763e+06 9.89387e+06 9.91752e+06 9.89354e+06
          9.91767e+06 9.89352e+06 9.91778e+06 9.89358e+06 9.91771e+06 9.89354e+06 9.9171e+06 9.89333e+06 9.91285e+06 9.89433e+06 9.87052e+06 9.86991e+06
          9.86972e+06 9.86968e+06 9.86966e+06 9.86977e+06 9.87015e+06 9.87099e+06 9.87102e+06 9.87089e+06 9.86998e+06 9.86954e+06 9.86941e+06 9.86946e+06
          9.86954e+06 9.86979e+06 9.87048e+06 9.8462e+06 9.84582e+06 9.84559e+06 9.8455e+06 9.84546e+06 9.84563e+06 9.84607e+06 9.84686e+06 9.84694e+06
          9.84682e+06 9.84599e+06 9.8455e+06 9.8453e+06 9.84534e+06 9.84546e+06 9.84572e+06 9.84616e+06 9.82176e+06 9.82152e+06 9.82135e+06 9.82126e+06
          9.82126e+06 9.82145e+06 9.82192e+06 9.82267e+06 9.82279e+06 9.82268e+06 9.82192e+06 9.82142e+06 9.8212e+06 9.82118e+06 9.82128e+06 9.82147e+06
          9.82174e+06 9.79729e+06 9.79714e+06 9.79704e+06 9.79697e+06 9.79701e+06 9.79723e+06 9.79772e+06 9.79844e+06 9.7986e+06 9.7985e+06 9.79782e+06
          9.79731e+06 9.79706e+06 9.79699e+06 9.79703e+06 9.79713e+06 9.79728e+06 9.7728e+06 9.77272e+06 9.77267e+06 9.77264e+06 9.77272e+06 9.77298e+06
          9.77349e+06 9.77419e+06 9.77438e+06 9.77431e+06 9.77369e+06 9.77318e+06 9.77289e+06 9.77276e+06 9.77275e+06 9.77277e+06 9.77281e+06 9.74831e+06
          9.74828e+06 9.74826e+06 9.74828e+06 9.74839e+06 9.74869e+06 9.74925e+06 9.74997e+06 9.75022e+06 9.75017e+06 9.74958e+06 9.74905e+06 9.74872e+06
          9.74854e+06 9.74845e+06 9.74839e+06 9.74833e+06 9.72381e+06 9.72386e+06 9.7239e+06 9.72406e+06 9.72441e+06 9.72505e+06 9.72602e+06 9.72711e+06
          9.72758e+06 9.72741e+06 9.7265e+06 9.72559e+06 9.72493e+06 9.7245e+06 9.72422e+06 9.72404e+06 9.72385e+06 9.6993e+06 9.69942e+06 9.69948e+06
          9.69971e+06 9.70019e+06 9.70104e+06 9.70231e+06 9.70371e+06 9.70433e+06 9.70405e+06 9.70288e+06 9.70167e+06 9.70079e+06 9.70022e+06 9.69987e+06
          9.69964e+06 9.69934e+06 9.67478e+06 9.67495e+06 9.67504e+06 9.6753e+06 9.67583e+06 9.67672e+06 9.67798e+06 9.67926e+06 9.67983e+06 9.67955e+06
          9.67849e+06 9.67731e+06 9.67641e+06 9.6758e+06 9.67542e+06 9.67516e+06 9.67483e+06 9.65028e+06 9.65049e+06 9.65061e+06 9.6509e+06 9.65147e+06
          9.65241e+06 9.65368e+06 9.6549e+06 9.65546e+06 9.65518e+06 9.65415e+06 9.65297e+06 9.65203e+06 9.65139e+06 9.65097e+06 9.6507e+06 9.65032e+06
          9.62578e+06 9.62605e+06 9.6262e+06 9.62651e+06 9.62712e+06 9.62817e+06 9.62958e+06 9.63094e+06 9.63156e+06 9.63117e+06 9.63001e+06 9.62871e+06
          9.62768e+06 9.627e+06 9.62655e+06 9.62625e+06 9.62583e+06 9.60134e+06 9.60168e+06 9.60189e+06 9.60238e+06 9.60328e+06 9.60504e+06 9.60776e+06
          9.61026e+06 9.6112e+06 9.61018e+06 9.60779e+06 9.60538e+06 9.60376e+06 9.60282e+06 9.60221e+06 9.60187e+06 9.60138e+06 9.57797e+06 9.57863e+06
          9.58e+06 9.58306e+06 9.58766e+06 9.5927e+06 9.59698e+06 9.59972e+06 9.60061e+06 9.59952e+06 9.5966e+06 9.59222e+06 9.58728e+06 9.58288e+06
          9.58001e+06 9.57865e+06 9.57792e+06 9.55952e+06 9.56357e+06 9.5709e+06 9.57764e+06 9.58323e+06 9.58796e+06 9.59168e+06 9.59405e+06 9.59482e+06
          9.5939e+06 9.59141e+06 9.58762e+06 9.58287e+06 9.57726e+06 9.5705e+06 9.56332e+06 9.55941e+06 9.54088e+06 9.55817e+06 9.56734e+06 9.5743e+06
          9.58004e+06 9.58472e+06 9.58829e+06 9.59054e+06 9.59127e+06 9.59042e+06 9.58808e+06 9.58444e+06 9.57972e+06 9.57396e+06 9.56701e+06 9.5579e+06
          9.54082e+06
        </DataArray>
        <DataArray type="Float32" Name="density_liquid" NumberOfComponents="1" format="ascii">
          996.848 996.092 996.516 996.203 995.53 995.626 994.578 994.675 992.848 993.071 989.184 989.33
          981.228 981.686 958.46 968.43 958.46 963.429 958.46 964.688 974.071 973.971 981.571 981.226
          986.062 985.987 989.661 989.707 992.528 992.762 994.605 995.06 995.5 996.43 996.541 996.339
          995.827 994.9 993.488 989.913 983.403 973.709 968.237 968.747 974.664 980.88 985.935 989.857
          993.185 995.472 996.492 996.561 996.372 995.957 995.151 993.945 990.713 985.263 977.684 972.473
          972.131 975.935 980.763 985.839 989.774 993.14 995.345 996.506 996.579 996.389 996.029 995.367
          994.289 991.448 986.973 980.882 976.119 975.032 977.315 980.912 985.341 989.304 992.686 995.049
          996.508 996.597 996.404 996.097 995.578 994.531 992.078 988.33 983.348 979.098 977.462 978.596
          981.14 984.731 988.594 992.035 994.637 996.502 996.615 996.433 996.214 995.826 994.708 992.547
          989.336 985.17 981.403 979.441 979.739 981.456 984.336 987.888 991.387 994.224 996.493 996.633
          996.545 996.46 996.091 994.885 992.925 990.085 986.515 983.165 981.094 980.872 982.036 984.363
          987.489 990.865 994.039 996.472 996.653 997.128 996.809 996.209 995.15 993.386 990.805 987.689
          984.683 982.65 982.226 983.097 985.141 987.926 990.994 994.025 996.461 996.661 997.163 996.886
          996.387 995.495 994.016 991.788 988.983 986.205 984.274 983.803 984.699 986.698 989.311 992.046
          994.626 996.296 996.685 997.202 996.964 996.547 995.787 994.529 992.622 990.171 987.716 986.014
          985.672 986.603 988.463 990.762 993.056 995.157 996.382 996.709 997.24 997.035 996.679 996.041
          994.986 993.38 991.323 989.27 987.897 987.739 988.668 990.286 992.176 994.006 995.643 996.472
          996.735 997.271 997.09 996.784 996.25 995.375 994.073 992.443 990.839 989.834 989.832 990.678
          991.983 993.44 994.831 996.071 996.556 996.778 997.288 997.116 996.841 996.39 995.668 994.667
          993.477 992.332 991.656 991.714 992.375 993.353 994.424 995.458 996.405 996.642 997.425 997.279
          997.093 996.823 996.434 995.885 995.199 994.401 993.655 993.211 993.225 993.634 994.27 995.03
          995.81 996.578 997.301 997.414 997.219 997.031 996.801 996.5 996.1 995.626 995.118 994.626
          994.332 994.305 994.513 994.887 995.361 995.897 996.513 997.247 997.406 997.182 997.001 996.79
          996.526 996.188 995.799 995.391 995.009 994.764 994.718 994.852 995.129 995.489 995.924 996.454
          997.217
        </DataArray>
        <DataArray type="Float32" Name="density_gas" NumberOfComponents="1" format="ascii">
          109.954 3.29616 1.08605 1.4962 10.189 5.63541 20.6243 18.9746 81.4042 94.6713 104.33 104.177
          99.8408 99.8381 90.4839 93.9247 90.4818 92.0248 90.4817 92.4893 96.4741 96.2044 100.01 99.5989
          28.6833 46.3632 17.3341 17.5128 6.47328 4.74569 1.98336 0.993309 108.807 0.579983 0.0507594 0.0690842
          1.68526 17.8895 101.903 104.308 100.498 95.8738 93.6244 93.8247 96.2797 99.1884 73.2631 16.9589
          3.57381 0.172094 0.0510842 0.0505587 0.0972332 2.06325 19.409 106.87 104.58 101.273 97.4236 95.1186
          94.9726 96.6141 98.8933 101.588 20.8274 5.49698 0.39459 0.0509212 0.0503695 0.19958 4.13621 28.1438
          106.883 104.83 102.009 98.7294 96.4732 95.9901 97.0117 98.7318 101.067 32.5641 11.8975 1.30546
          0.0508416 0.0501818 0.634133 9.73537 45.8765 106.815 105.011 102.577 99.7568 97.6228 96.8531 97.3752
          98.6092 100.488 57.691 29.5596 5.70355 0.0508082 0.0499943 3.36533 24.5946 75.0175 106.697 105.089
          102.95 100.501 98.5154 97.5501 97.6869 98.53 100.031 98.8045 74.5672 30.8983 0.0508031 0.0498051
          18.7116 59.3421 107.555 106.578 105.109 103.182 101.018 99.1817 98.123 98.0065 98.5833 99.8037
          101.567 98.6283 88.5326 0.946529 0.275127 108.189 107.906 107.396 106.53 105.196 103.409 101.471
          99.7681 98.6874 98.4584 98.9016 99.9916 101.587 103.517 105.658 2.70053 0.796645 107.959 107.714
          107.285 106.554 105.411 103.828 102.017 100.38 99.3106 99.0454 99.5172 100.626 102.185 103.978
          105.863 3.84441 1.32168 107.732 107.522 107.158 106.536 105.548 104.155 102.518 101.007 100.022
          99.8169 100.335 101.421 102.862 104.439 106.014 4.32254 1.93376 107.503 107.324 107.014 106.485
          105.643 104.445 103.023 101.701 100.865 100.76 101.307 102.31 103.562 104.877 106.151 4.76897
          2.77135 107.269 107.111 106.846 106.399 105.694 104.704 103.537 102.458 101.809 101.796 102.321
          103.186 104.208 105.249 106.242 5.41099 6.74676 107.023 106.874 106.638 106.261 105.688 104.928
          104.061 103.254 102.784 102.798 103.223 103.902 104.688 105.487 106.257 8.82137 106.89 106.769
          106.621 106.418 106.132 105.736 105.225 104.641 104.089 103.759 103.738 103.985 104.41 104.942
          105.538 106.156 106.781 106.683 106.557 106.472 106.343 106.141 105.862 105.516 105.13 104.762
          104.529 104.482 104.599 104.835 105.148 105.51 105.938 106.536 106.477 106.469 106.409 106.3
          106.131 105.901 105.621 105.314 105.019 104.822 104.762 104.826 104.988 105.218 105.497 105.833
          106.311
        </DataArray>
        <DataArray type="Float32" Name="saturation_liquid" NumberOfComponents="1" format="ascii">
          0.989963 1 1 1 1 1 1 1 1 1 0.995734 0.984582
          0.950604 0.928872 0.799611 0.807719 0.797376 0.800224 0.799324 0.805384 0.946807 0.924291 0.996142 0.982463
          1 1 1 1 1 1 1 1 0.991926 1 1 1
          1 1 1 0.976805 0.917254 0.812806 0.803169 0.809765 0.912084 0.974017 1 1
          1 1 1 1 1 1 1 0.999522 0.97044 0.909483 0.816828 0.805938
          0.813448 0.904039 0.967169 0.999858 1 1 1 1 1 1 1 1
          0.99425 0.964959 0.903732 0.820176 0.808473 0.816635 0.898291 0.961391 0.99259 1 1 1
          1 1 1 1 1 0.990969 0.960054 0.899146 0.82291 0.810693 0.819381 0.893961
          0.956376 0.989085 1 1 1 1 1 1 1 1 0.988028 0.955485
          0.895203 0.825021 0.812461 0.821655 0.890533 0.951911 0.986098 1 1 1 1 1
          1 1 0.998085 0.984673 0.949946 0.889397 0.823082 0.809709 0.820004 0.885526 0.946717 0.982707
          0.997122 1 1 1 1 0.994587 0.98907 0.967861 0.924966 0.856261 0.77027 0.695516
          0.674572 0.694088 0.77021 0.856183 0.92383 0.965456 0.986452 0.993396 1 1 0.98849 0.984247
          0.957001 0.900713 0.814165 0.713283 0.633077 0.6099 0.632887 0.715233 0.815646 0.90007 0.954163 0.981238
          0.987701 1 1 0.98553 0.981614 0.95259 0.892701 0.804817 0.708919 0.637724 0.616383 0.638532
          0.712439 0.807814 0.892944 0.949999 0.978771 0.984893 1 1 0.983163 0.97892 0.947648 0.884365
          0.795746 0.70454 0.640401 0.620806 0.642595 0.710006 0.800587 0.885761 0.945464 0.976176 0.982605 1
          1 0.981088 0.975935 0.941358 0.872806 0.780077 0.688123 0.625479 0.606156 0.630522 0.697504 0.788224
          0.876196 0.939893 0.973269 0.980575 1 1 0.978092 0.962805 0.906322 0.800827 0.669239 0.569374
          0.521359 0.508118 0.526177 0.583623 0.69172 0.817139 0.911809 0.96258 0.977676 1 0.939009 0.839671
          0.687049 0.545362 0.474054 0.440588 0.42495 0.417859 0.415024 0.416261 0.42328 0.44138 0.480072 0.560565
          0.706374 0.85103 0.943027 0.684033 0.466134 0.400256 0.383308 0.377414 0.374894 0.373506 0.372454 0.371503
          0.370754 0.370683 0.371695 0.37455 0.381412 0.400118 0.470025 0.68833 0.536582 0.33728 0.328167 0.326195
          0.325426 0.324949 0.324489 0.323948 0.323371 0.322848 0.322668 0.322819 0.323324 0.324336 0.326696 0.336399
          0.539324
        </DataArray>
        <DataArray type="Float32" Name="saturation_gas" NumberOfComponents="1" format="ascii">
          0.0100369 0 0 0 0 0 0 0 0 0 0.00426579 0.015418
          0.0493957 0.0711285 0.200389 0.192281 0.202624 0.199776 0.200676 0.194616 0.0531929 0.0757087 0.00385822 0.0175372
          0 0 0 0 0 0 0 0 0.00807369 0 0 0
          0 0 0 0.0231948 0.082746 0.187194 0.196831 0.190235 0.0879162 0.0259834 0 0
          0 0 0 0 0 0 0 0.000478022 0.0295597 0.0905172 0.183172 0.194062
          0.186552 0.0959609 0.0328313 0.000142433 0 0 0 0 0 0 0 0
          0.00574952 0.0350409 0.0962677 0.179824 0.191527 0.183365 0.101709 0.0386094 0.00740952 0 0 0
          0 0 0 0 0 0.00903097 0.0399458 0.100854 0.17709 0.189307 0.180619 0.106039
          0.0436237 0.010915 0 0 0 0 0 0 0 0 0.0119718 0.0445152
          0.104797 0.174979 0.187539 0.178345 0.109467 0.048089 0.0139016 0 0 0 0 0
          0 0 0.00191524 0.0153266 0.0500535 0.110603 0.176918 0.190291 0.179996 0.114474 0.0532826 0.0172927
          0.0028782 0 0 0 0 0.00541275 0.0109305 0.0321392 0.0750338 0.143739 0.22973 0.304484
          0.325428 0.305912 0.22979 0.143817 0.0761696 0.034544 0.0135478 0.00660364 0 0 0.0115104 0.0157534
          0.042999 0.0992873 0.185835 0.286717 0.366923 0.3901 0.367113 0.284767 0.184354 0.0999299 0.0458371 0.0187622
          0.012299 0 0 0.0144703 0.0183857 0.0474096 0.107299 0.195183 0.291081 0.362276 0.383617 0.361468
          0.287561 0.192186 0.107056 0.0500015 0.0212294 0.0151068 0 0 0.016837 0.0210797 0.0523515 0.115635
          0.204254 0.29546 0.359599 0.379194 0.357405 0.289995 0.199413 0.114239 0.0545363 0.0238239 0.0173947 0
          0 0.018912 0.024065 0.058642 0.127194 0.219923 0.311877 0.374521 0.393844 0.369478 0.302496 0.211776
          0.123804 0.0601066 0.0267308 0.0194249 0 0 0.0219081 0.0371946 0.0936781 0.199173 0.330761 0.430626
          0.478641 0.491882 0.473823 0.416377 0.30828 0.182861 0.0881908 0.0374202 0.0223242 0 0.0609907 0.160329
          0.312951 0.454638 0.525946 0.559412 0.57505 0.582141 0.584976 0.583739 0.57672 0.55862 0.519928 0.439435
          0.293626 0.14897 0.0569727 0.315967 0.533866 0.599744 0.616692 0.622586 0.625106 0.626494 0.627546 0.628497
          0.629246 0.629317 0.628305 0.62545 0.618588 0.599882 0.529975 0.31167 0.463418 0.66272 0.671833 0.673805
          0.674574 0.675051 0.675511 0.676052 0.676629 0.677152 0.677332 0.677181 0.676676 0.675664 0.673304 0.663601
          0.460676
        </DataArray>
        <DataArray type="Float32" Name="relativePerm_liquid" NumberOfComponents="1" format="ascii">
          0.950752 1 1 1 1 1 1 1 1 1 0.978841 0.92511
          0.774969 0.689039 0.315586 0.333006 0.310907 0.316878 0.314983 0.327916 0.759405 0.671882 0.980848 0.915156
          1 1 1 1 1 1 1 1 0.960239 1 1 1
          1 1 1 0.888973 0.646148 0.344295 0.323143 0.337514 0.627718 0.876276 1 1
          1 1 1 1 1 1 1 0.997612 0.860193 0.618597 0.353424 0.32912
          0.345742 0.599829 0.845675 0.999288 1 1 1 1 1 1 1 1
          0.971561 0.835974 0.598784 0.36116 0.33466 0.352982 0.580478 0.820484 0.963464 1 1 1
          1 1 1 1 1 0.955604 0.814739 0.583325 0.367572 0.339571 0.359312 0.566214
          0.799083 0.946532 1 1 1 1 1 1 1 1 0.941471 0.795322
          0.570277 0.372579 0.343522 0.364617 0.555107 0.78038 0.932283 1 1 1 1 1
          1 1 0.990458 0.925541 0.772256 0.551465 0.367977 0.337389 0.36076 0.539181 0.759041 0.9163
          0.985686 1 1 1 1 0.97321 0.946457 0.848731 0.67439 0.452842 0.258204 0.147187
          0.123836 0.145498 0.258096 0.452626 0.670173 0.838149 0.933962 0.967388 1 1 0.943678 0.923529
          0.801726 0.588573 0.347361 0.16946 0.0858815 0.0689209 0.0857307 0.17205 0.350723 0.586416 0.78977 0.909438
          0.939909 1 1 0.929588 0.911192 0.783204 0.562114 0.32669 0.163771 0.0896277 0.0733856 0.0902908
          0.168348 0.333213 0.562901 0.77247 0.898004 0.926579 1 1 0.918436 0.898695 0.762834 0.53554
          0.307528 0.158206 0.0918406 0.0765541 0.0936838 0.165173 0.317647 0.539924 0.753956 0.886097 0.915822 1
          1 0.908741 0.884996 0.737483 0.500265 0.276429 0.138598 0.0800117 0.0664373 0.0838729 0.149564 0.292288
          0.510423 0.731672 0.872897 0.906356 1 1 0.894878 0.8266 0.607646 0.318154 0.118363 0.045447
          0.0260376 0.0220043 0.0276348 0.0528759 0.142728 0.354138 0.62675 0.825622 0.892965 1 0.728182 0.408758
          0.137382 0.0347329 0.0137716 0.00817972 0.00625144 0.0054997 0.005219 0.00534013 0.00606796 0.00828792 0.0150217 0.0412643
          0.160519 0.438575 0.744148 0.134011 0.0122473 0.00392627 0.00275655 0.00241877 0.00228424 0.00221257 0.00215939 0.00211218
          0.00207549 0.00207207 0.00212161 0.00226629 0.00264425 0.0039155 0.0129794 0.138833 0.0313331 0.000867096 0.000658787 0.000619165
          0.000604209 0.00059507 0.000586353 0.000576227 0.000565585 0.000556056 0.000552794 0.000555518 0.000564709 0.000583486 0.000629063 0.00084505
          0.0323666
        </DataArray>
        <DataArray type="Float32" Name="relativePerm_gas" NumberOfComponents="1" format="ascii">
          3.92486e-06 0 0 0 0 0 0 0 0 0 3.02411e-07 1.41788e-05
          0.000456256 0.0013432 0.0274961 0.0244323 0.028381 0.0272565 0.0276086 0.0252914 0.000568379 0.0016149 2.23807e-07 2.08378e-05
          0 0 0 0 0 0 0 0 2.04541e-06 0 0 0
          0 0 0 4.80388e-05 0.00209865 0.0226256 0.0261236 0.0236949 0.00250855 6.74121e-05 0 0
          0 0 0 0 0 0 0 4.26554e-10 9.9029e-05 0.00273314 0.0212586 0.0250856
          0.0224036 0.00324475 0.000135401 1.12864e-11 0 0 0 0 0 0 0 0
          7.3976e-07 0.000164387 0.00327531 0.0201617 0.0241591 0.0213229 0.00384872 0.000219397 1.58167e-06 0 0 0
          0 0 0 0 0 2.86091e-06 0.000242768 0.00375465 0.0192929 0.0233655 0.0204187 0.00434885
          0.000315444 5.04495e-06 0 0 0 0 0 0 0 0 6.6524e-06 0.000334989
          0.00420138 0.0186389 0.0227452 0.0196888 0.00477348 0.00042135 1.04032e-05 0 0 0 0 0
          0 0 2.741e-08 1.39288e-05 0.000474527 0.00491981 0.0192391 0.023715 0.020217 0.00544058 0.000571226 1.99815e-05
          9.29698e-08 0 0 0 0 6.17366e-07 5.06645e-06 0.000127073 0.00157279 0.0105585 0.0405601 0.0892846
          0.107243 0.0904469 0.0405899 0.0105752 0.00164408 0.000157543 9.63114e-06 1.12025e-06 0 0 5.9142e-06 1.51213e-05
          0.000302207 0.00358607 0.0221576 0.0755715 0.148715 0.175355 0.148924 0.0741502 0.0216547 0.00365459 0.000365417 2.54968e-05
          7.21142e-06 0 0 1.17286e-05 2.39985e-05 0.000403919 0.0045019 0.0255027 0.078812 0.143675 0.167651 0.14281
          0.0761921 0.0243979 0.00447217 0.000473064 3.68782e-05 1.33401e-05 0 0 1.84484e-05 3.61073e-05 0.000542126 0.00560334
          0.0290375 0.082147 0.140817 0.162506 0.138501 0.0779978 0.027115 0.00540788 0.000612007 5.20335e-05 2.03359e-05 0
          0 2.61099e-05 5.36211e-05 0.000758875 0.00739919 0.0358389 0.0953996 0.157171 0.179894 0.151529 0.0876815 0.0321906
          0.00683897 0.000816389 7.33635e-05 2.82835e-05 0 0 4.05123e-05 0.000196328 0.00302324 0.0270221 0.112131 0.227979
          0.300203 0.321965 0.292479 0.2086 0.0923945 0.021155 0.00253167 0.000199894 4.28533e-05 0 0.000852456 0.0144858
          0.0963088 0.262772 0.381495 0.444748 0.475839 0.490245 0.496056 0.493517 0.479213 0.443199 0.370615 0.240433
          0.0807402 0.0117115 0.000696649 0.0988873 0.396049 0.526804 0.563034 0.575859 0.581377 0.584426 0.586741 0.588834
          0.590488 0.590643 0.588413 0.582133 0.567148 0.527094 0.388866 0.0952255 0.276159 0.666039 0.687148 0.691744
          0.693539 0.694653 0.695728 0.696993 0.698341 0.699565 0.699988 0.699635 0.698453 0.696085 0.690575 0.668071
          0.271941
        </DataArray>
        <DataArray type="Float32" Name="porosity" NumberOfComponents="1" format="ascii">
          0.3 0.3 0.3 0.3 0.3 0.3 0.3 0.3 0.3 0.3 0.3 0.3
          0.3 0.3 0.3 0.3 0.3 0.3 0.3 0.3 0.3 0.3 0.3 0.3
          0.3 0.3 0.3 0.3 0.3 0.3 0.3 0.3 0.3 0.3 0.3 0.3
          0.3 0.3 0.3 0.3 0.3 0.3 0.3 0.3 0.3 0.3 0.3 0.3
          0.3 0.3 0.3 0.3 0.3 0.3 0.3 0.3 0.3 0.3 0.3 0.3
          0.3 0.3 0.3 0.3 0.3 0.3 0.3 0.3 0.3 0.3 0.3 0.3
          0.3 0.3 0.3 0.3 0.3 0.3 0.3 0.3 0.3 0.3 0.3 0.3
          0.3 0.3 0.3 0.3 0.3 0.3 0.3 0.3 0.3 0.3 0.3 0.3
          0.3 0.3 0.3 0.3 0.3 0.3 0.3 0.3 0.3 0.3 0.3 0.3
          0.3 0.3 0.3 0.3 0.3 0.3 0.3 0.3 0.3 0.3 0.3 0.3
          0.3 0.3 0.3 0.3 0.3 0.3 0.3 0.3 0.3 0.3 0.3 0.3
          0.3 0.3 0.3 0.3 0.3 0.3 0.3 0.3 0.3 0.3 0.3 0.3
          0.3 0.3 0.3 0.3 0.3 0.3 0.3 0.3 0.3 0.3 0.3 0.3
          0.3 0.3 0.3 0.3 0.3 0.3 0.3 0.3 0.3 0.3 0.3 0.3
          0.3 0.3 0.3 0.3 0.3 0.3 0.3 0.3 0.3 0.3 0.3 0.3
          0.3 0.3 0.3 0.3 0.3 0.3 0.3 0.3 0.3 0.3 0.3 0.3
          0.3 0.3 0.3 0.3 0.3 0.3 0.3 0.3 0.3 0.3 0.3 0.3
          0.3 0.3 0.3 0.3 0.3 0.3 0.3 0.3 0.3 0.3 0.3 0.3
          0.3 0.3 0.3 0.3 0.3 0.3 0.3 0.3 0.3 0.3 0.3 0.3
          0.3 0.3 0.3 0.3 0.3 0.3 0.3 0.3 0.3 0.3 0.3 0.3
          0.3 0.3 0.3 0.3 0.3 0.3 0.3 0.3 0.3 0.3 0.3 0.3
          0.3 0.3 0.3 0.3 0.3 0.3 0.3 0.3 0.3 0.3 0.3 0.3
          0.3 0.3 0.3 0.3 0.3 0.3 0.3 0.3 0.3 0.3 0.3 0.3
          0.3 0.3 0.3 0.3 0.3 0.3 0.3 0.3 0.3 0.3 0.3 0.3
          0.3
        </DataArray>
        <DataArray type="Float32" Name="temperature" NumberOfComponents="1" format="ascii">
          313.925 314.172 313.007 313.827 315.673 315.341 318.142 317.869 322.918 322.577 330.89 330.572
          345.554 344.745 380 365.879 380 373.107 380 371.315 357.314 357.451 344.963 345.537
          336.101 336.414 328.894 328.78 322.643 322.078 317.814 316.664 317.215 313.223 312.898 313.425
          314.763 317.285 321.725 329.365 341.701 357.841 366.148 365.391 356.339 346.113 336.784 328.446
          321.097 315.613 313.026 312.819 313.312 314.423 316.665 320.748 327.719 338.311 351.455 359.742
          360.274 354.297 346.295 337.253 328.64 321.201 315.903 312.962 312.744 313.242 314.244 316.241
          319.926 326.149 335.089 346.069 353.985 355.715 352.038 346.018 338.146 329.719 322.272 316.62
          312.93 312.67 313.182 314.129 315.964 319.341 324.794 332.445 341.737 349.07 351.778 349.912
          345.604 339.241 331.419 323.929 317.673 312.917 312.596 313.124 314.037 315.77 318.905 323.757
          330.442 338.416 345.132 348.476 347.977 345.04 339.941 333.25 325.859 318.967 312.915 312.521
          313.055 313.934 315.587 318.469 322.899 328.896 335.886 342.02 345.642 346.025 344.02 339.871
          334.043 327.242 320.179 312.956 312.446 312.966 313.785 315.272 317.831 321.858 327.406 333.63
          339.263 342.913 343.665 342.12 338.425 333.165 327.007 320.426 312.986 312.407 312.845 313.555
          314.811 316.971 320.418 325.306 331.075 336.429 339.99 340.846 339.213 335.497 330.419 324.762
          319.01 313.408 312.326 312.714 313.323 314.392 316.235 319.206 323.488 328.65 333.532 336.767
          337.412 335.652 332.069 327.447 322.53 317.76 313.163 312.244 312.586 313.111 314.023 315.591
          318.126 321.791 326.237 330.456 333.154 333.463 331.644 328.392 324.437 320.385 316.556 312.907
          312.164 312.476 312.94 313.723 315.054 317.177 320.205 323.831 327.236 329.287 329.291 327.573
          324.817 321.632 318.456 315.487 312.674 312.09 312.401 312.842 313.546 314.684 316.437 318.806
          321.528 324.052 325.486 325.363 323.954 321.798 319.367 316.945 314.65 312.477 312.02 312.393
          312.868 313.564 314.554 315.89 317.558 319.409 321.122 322.098 322.064 321.161 319.698 317.943
          316.062 314.19 312.336 312.022 312.522 313.009 313.606 314.384 315.36 316.512 317.746 318.881
          319.557 319.616 319.134 318.264 317.139 315.833 314.331 312.448 312.016 312.602 313.076 313.625
          314.309 315.139 316.086 317.078 317.988 318.554 318.656 318.343 317.7 316.82 315.757 314.463
          312.499
        </DataArray>
        <DataArray type="Float32" Name="moleFrac_liquid^H2O" NumberOfComponents="1" format="ascii">
          0.998872 0.999967 0.999989 0.999985 0.999897 0.999943 0.999794 0.99981 0.999201 0.99907 0.999 0.999
          0.999056 0.999056 0.999111 0.999098 0.999111 0.999106 0.999111 0.999104 0.999082 0.999085 0.999054 0.999058
          0.999728 0.99956 0.999834 0.999832 0.999937 0.999954 0.999981 0.999991 0.998904 0.999995 1 1
          0.999983 0.99982 0.998995 0.998996 0.999049 0.999088 0.9991 0.999099 0.999085 0.999062 0.999304 0.999837
          0.999965 0.999999 1 1 1 0.999979 0.999804 0.998942 0.99899 0.999039 0.999077 0.999093
          0.999094 0.999083 0.999065 0.999035 0.9998 0.999946 0.999997 1 1 0.999998 0.999958 0.999716
          0.998938 0.998983 0.999029 0.999066 0.999085 0.999088 0.999081 0.999066 0.999041 0.999688 0.999884 0.999987
          1 1 0.999994 0.999901 0.999535 0.998936 0.998976 0.999019 0.999056 0.999076 0.999083 0.999078
          0.999068 0.999048 0.999448 0.999712 0.999943 1 1 0.999966 0.999748 0.999239 0.998935 0.998972
          0.999012 0.999047 0.999068 0.999077 0.999076 0.999068 0.999052 0.999057 0.999276 0.999692 1 1
          0.999807 0.999391 0.998907 0.998934 0.998969 0.999006 0.999039 0.999061 0.999072 0.999073 0.999068 0.999054
          0.999032 0.999046 0.999121 0.999991 0.999998 0.998883 0.998892 0.998907 0.998931 0.998963 0.999 0.999032
          0.999054 0.999066 0.999069 0.999064 0.999052 0.99903 0.998998 0.998953 0.999973 0.999992 0.998884 0.998892
          0.998905 0.998926 0.998955 0.99899 0.999022 0.999046 0.999059 0.999062 0.999057 0.999043 0.999019 0.998986
          0.998944 0.999961 0.999987 0.998886 0.998892 0.998903 0.998922 0.998948 0.99898 0.999012 0.999036 0.99905
          0.999052 0.999046 0.99903 0.999005 0.998974 0.998936 0.999956 0.99998 0.998887 0.998893 0.998902 0.998918
          0.998941 0.998971 0.999 0.999024 0.999037 0.999039 0.99903 0.999013 0.998989 0.99896 0.998927 0.999951
          0.999972 0.998889 0.998894 0.998902 0.998916 0.998936 0.998961 0.998987 0.999009 0.99902 0.99902 0.999011
          0.998994 0.998972 0.998947 0.99892 0.999945 0.99993 0.998891 0.998896 0.998903 0.998915 0.998931 0.998952
          0.998973 0.998991 0.999 0.999 0.998991 0.998976 0.998957 0.998936 0.998914 0.999909 0.998889 0.998893
          0.998898 0.998905 0.998915 0.998928 0.998942 0.998958 0.998971 0.998979 0.998979 0.998972 0.998962 0.998947
          0.998931 0.998912 0.998893 0.998891 0.998896 0.998901 0.998906 0.998914 0.998923 0.998934 0.998944 0.998954