<?xml version="1.0"?>
<VTKFile type="UnstructuredGrid" version="0.1" byte_order="LittleEndian">
  <UnstructuredGrid>
    <Piece NumberOfCells="4096" NumberOfPoints="4225">
      <PointData Scalars="pressure_liquid">
        <DataArray type="Float32" Name="pressure_liquid" NumberOfComponents="1" format="ascii">
          9.90845e+06 9.91053e+06 9.90399e+06 9.90459e+06 9.91159e+06 9.90552e+06 9.91251e+06 9.90642e+06 9.91339e+06 9.90729e+06 9.91426e+06 9.90815e+06
          9.91513e+06 9.90902e+06 9.916e+06 9.90989e+06 9.91689e+06 9.91077e+06 9.91778e+06 9.91166e+06 9.9187e+06 9.91258e+06 9.91963e+06 9.91351e+06
          9.92059e+06 9.91446e+06 9.92157e+06 9.91545e+06 9.92259e+06 9.91646e+06 9.92365e+06 9.91752e+06 9.92476e+06 9.91862e+06 9.92592e+06 9.91978e+06
          9.92716e+06 9.921e+06 9.92848e+06 9.92231e+06 9.9299e+06 9.92372e+06 9.93147e+06 9.92527e+06 9.93321e+06 9.92698e+06 9.93515e+06 9.92897e+06
          9.93844e+06 9.93105e+06 9.9409e+06 9.93506e+06 9.94339e+06 9.93748e+06 9.94517e+06 9.93919e+06 9.94631e+06 9.9403e+06 9.94689e+06 9.94087e+06
          9.94693e+06 9.94091e+06 9.94642e+06 9.94042e+06 9.94532e+06 9.93935e+06 9.94385e+06 9.93734e+06 9.9426e+06 9.93636e+06 9.94153e+06 9.93536e+06
          9.9404e+06 9.93429e+06 9.93912e+06 9.93305e+06 9.93756e+06 9.93156e+06 9.93557e+06 9.92968e+06 9.9333e+06 9.92705e+06 9.93162e+06 9.92578e+06
          9.93059e+06 9.92466e+06 9.92964e+06 9.9237e+06 9.9288e+06 9.92287e+06 9.92806e+06 9.92214e+06 9.92743e+06 9.92151e+06 9.9269e+06 9.92097e+06
          9.92655e+06 9.9205e+06 9.92556e+06 9.91946e+06 9.92449e+06 9.91838e+06 9.92341e+06 9.9173e+06 9.92234e+06 9.91623e+06 9.92129e+06 9.91517e+06
          9.92024e+06 9.91413e+06 9.9192e+06 9.91309e+06 9.91818e+06 9.91206e+06 9.91715e+06 9.91104e+06 9.91613e+06 9.91002e+06 9.91512e+06 9.90901e+06
          9.9141e+06 9.90799e+06 9.91306e+06 9.90696e+06 9.91198e+06 9.90592e+06 9.91076e+06 9.90482e+06 9.9085e+06 9.90407e+06 9.89804e+06 9.89871e+06
          9.8995e+06 9.90034e+06 9.90119e+06 9.90204e+06 9.9029e+06 9.90376e+06 9.90464e+06 9.90553e+06 9.90644e+06 9.90736e+06 9.90831e+06 9.90929e+06
          9.91029e+06 9.91134e+06 9.91243e+06 9.91357e+06 9.91477e+06 9.91605e+06 9.91742e+06 9.9189e+06 9.92053e+06 9.92233e+06 9.92439e+06 9.92671e+06
          9.92887e+06 9.93042e+06 9.93143e+06 9.93196e+06 9.93201e+06 9.93159e+06 9.93066e+06 9.9292e+06 9.92838e+06 9.92753e+06 9.92656e+06 9.92546e+06
          9.92416e+06 9.92261e+06 9.92096e+06 9.91966e+06 9.91859e+06 9.91766e+06 9.91684e+06 9.91612e+06 9.91549e+06 9.91493e+06 9.91444e+06 9.91336e+06
          9.91226e+06 9.91117e+06 9.9101e+06 9.90905e+06 9.908e+06 9.90697e+06 9.90594e+06 9.90492e+06 9.90391e+06 9.9029e+06 9.9019e+06 9.90089e+06
          9.8999e+06 9.89895e+06 9.89812e+06 9.89196e+06 9.89268e+06 9.89345e+06 9.89426e+06 9.89509e+06 9.89592e+06 9.89677e+06 9.89763e+06 9.8985e+06
          9.89938e+06 9.90028e+06 9.90119e+06 9.90213e+06 9.9031e+06 9.90409e+06 9.90512e+06 9.90618e+06 9.9073e+06 9.90846e+06 9.90969e+06 9.911e+06
          9.91239e+06 9.91389e+06 9.9155e+06 9.91721e+06 9.91893e+06 9.92049e+06 9.92174e+06 9.92261e+06 9.92308e+06 9.92316e+06 9.92284e+06 9.92211e+06
          9.92099e+06 9.9204e+06 9.9197e+06 9.91887e+06 9.91792e+06 9.91685e+06 9.91568e+06 9.91449e+06 9.91337e+06 9.91238e+06 9.9115e+06 9.91072e+06
          9.91002e+06 9.9094e+06 9.90884e+06 9.90834e+06 9.90724e+06 9.90613e+06 9.90504e+06 9.90396e+06 9.90291e+06 9.90187e+06 9.90084e+06 9.89981e+06
          9.8988e+06 9.89779e+06 9.89679e+06 9.8958e+06 9.89482e+06 9.89385e+06 9.89292e+06 9.89204e+06 9.88585e+06 9.8866e+06 9.88737e+06 9.88816e+06
          9.88897e+06 9.8898e+06 9.89064e+06 9.89148e+06 9.89234e+06 9.89321e+06 9.8941e+06 9.895e+06 9.89593e+06 9.89688e+06 9.89785e+06 9.89885e+06
          9.89989e+06 9.90097e+06 9.90209e+06 9.90326e+06 9.90449e+06 9.90578e+06 9.90714e+06 9.90854e+06 9.90997e+06 9.91136e+06 9.91261e+06 9.91363e+06
          9.91436e+06 9.91478e+06 9.91488e+06 9.91465e+06 9.91412e+06 9.91335e+06 9.91287e+06 9.91227e+06 9.91157e+06 9.91075e+06 9.90985e+06 9.90888e+06
          9.9079e+06 9.90694e+06 9.90606e+06 9.90525e+06 9.90451e+06 9.90384e+06 9.90323e+06 9.90268e+06 9.90219e+06 9.90108e+06 9.89997e+06 9.89888e+06
          9.89781e+06 9.89676e+06 9.89572e+06 9.89469e+06 9.89368e+06 9.89267e+06 9.89167e+06 9.89068e+06 9.8897e+06 9.88873e+06 9.88777e+06 9.88684e+06
          9.88593e+06 9.87972e+06 9.88048e+06 9.88126e+06 9.88205e+06 9.88285e+06 9.88366e+06 9.88449e+06 9.88532e+06 9.88617e+06 9.88703e+06 9.8879e+06
          9.88879e+06 9.8897e+06 9.89063e+06 9.89158e+06 9.89256e+06 9.89356e+06 9.8946e+06 9.89567e+06 9.89678e+06 9.89793e+06 9.89911e+06 9.90033e+06
          9.90156e+06 9.90277e+06 9.90393e+06 9.90496e+06 9.9058e+06 9.90643e+06 9.90681e+06 9.90692e+06 9.90678e+06 9.90641e+06 9.90584e+06 9.90546e+06
          9.90496e+06 9.90437e+06 9.90368e+06 9.90291e+06 9.9021e+06 9.90126e+06 9.90044e+06 9.89966e+06 9.89892e+06 9.89823e+06 9.8976e+06 9.89702e+06
          9.89648e+06 9.89599e+06 9.8949e+06 9.89379e+06 9.8927e+06 9.89164e+06 9.89059e+06 9.88956e+06 9.88854e+06 9.88753e+06 9.88653e+06 9.88554e+06
          9.88456e+06 9.88358e+06 9.88262e+06 9.88167e+06 9.88073e+06 9.8798e+06 9.8736e+06 9.87436e+06 9.87514e+06 9.87592e+06 9.87671e+06 9.87752e+06
          9.87833e+06 9.87915e+06 9.87999e+06 9.88083e+06 9.88169e+06 9.88257e+06 9.88346e+06 9.88436e+06 9.88528e+06 9.88623e+06 9.8872e+06 9.88819e+06
          9.88921e+06 9.89025e+06 9.89132e+06 9.8924e+06 9.8935e+06 9.89458e+06 9.89564e+06 9.89662e+06 9.89749e+06 9.89821e+06 9.89875e+06 9.89909e+06
          9.89923e+06 9.89916e+06 9.89889e+06 9.89847e+06 9.89817e+06 9.89776e+06 9.89726e+06 9.89667e+06 9.89602e+06 9.89533e+06 9.89462e+06 9.8939e+06
          9.8932e+06 9.89254e+06 9.8919e+06 9.89131e+06 9.89075e+06 9.89024e+06 9.88975e+06 9.88868e+06 9.88758e+06 9.88651e+06 9.88545e+06 9.88442e+06
          9.88339e+06 9.88238e+06 9.88138e+06 9.88038e+06 9.8794e+06 9.87843e+06 9.87746e+06 9.8765e+06 9.87555e+06 9.87461e+06 9.87368e+06 9.86746e+06
          9.86823e+06 9.869e+06 9.86978e+06 9.87056e+06 9.87136e+06 9.87216e+06 9.87297e+06 9.87379e+06 9.87463e+06 9.87547e+06 9.87632e+06 9.87719e+06
          9.87807e+06 9.87897e+06 9.87988e+06 9.88081e+06 9.88176e+06 9.88272e+06 9.8837e+06 9.88469e+06 9.88569e+06 9.88668e+06 9.88764e+06 9.88856e+06
          9.88942e+06 9.89017e+06 9.8908e+06 9.89128e+06 9.89159e+06 9.89174e+06 9.89172e+06 9.89154e+06 9.89123e+06 9.89099e+06 9.89065e+06 9.89023e+06
          9.88974e+06 9.88918e+06 9.88859e+06 9.88797e+06 9.88734e+06 9.88672e+06 9.88612e+06 9.88553e+06 9.88498e+06 9.88445e+06 9.88395e+06 9.88348e+06
          9.88243e+06 9.88135e+06 9.88029e+06 9.87925e+06 9.87822e+06 9.87721e+06 9.87621e+06 9.87522e+06 9.87423e+06 9.87325e+06 9.87229e+06 9.87132e+06
          9.87037e+06 9.86942e+06 9.86848e+06 9.86755e+06 9.86133e+06 9.86209e+06 9.86286e+06 9.86363e+06 9.86441e+06 9.86519e+06 9.86598e+06 9.86678e+06
          9.86759e+06 9.86841e+06 9.86923e+06 9.87007e+06 9.87091e+06 9.87177e+06 9.87264e+06 9.87352e+06 9.87441e+06 9.87531e+06 9.87622e+06 9.87714e+06
          9.87806e+06 9.87897e+06 9.87987e+06 9.88074e+06 9.88156e+06 9.88231e+06 9.88298e+06 9.88354e+06 9.88397e+06 9.88426e+06 9.88442e+06 9.88444e+06
          9.88433e+06 9.8841e+06 9.88391e+06 9.88363e+06 9.88328e+06 9.88286e+06 9.88239e+06 9.88187e+06 9.88133e+06 9.88078e+06 9.88022e+06 9.87968e+06
          9.87914e+06 9.87862e+06 9.87812e+06 9.87764e+06 9.87719e+06 9.87616e+06 9.8751e+06 9.87406e+06 9.87303e+06 9.87202e+06 9.87102e+06 9.87003e+06
          9.86904e+06 9.86807e+06 9.8671e+06 9.86614e+06 9.86518e+06 9.86424e+06 9.86329e+06 9.86235e+06 9.86142e+06 9.8552e+06 9.85596e+06 9.85672e+06
          9.85748e+06 9.85825e+06 9.85902e+06 9.8598e+06 9.86058e+06 9.86138e+06 9.86218e+06 9.86298e+06 9.8638e+06 9.86462e+06 9.86545e+06 9.86629e+06
          9.86714e+06 9.86799e+06 9.86885e+06 9.86972e+06 9.87058e+06 9.87143e+06 9.87228e+06 9.8731e+06 9.87388e+06 9.87462e+06 9.8753e+06 9.8759e+06
          9.8764e+06 9.8768e+06 9.87708e+06 9.87724e+06 9.87729e+06 9.87723e+06 9.87707e+06 9.87692e+06 9.87669e+06 9.87639e+06 9.87604e+06 9.87563e+06
          9.87518e+06 9.87471e+06 9.87422e+06 9.87372e+06 9.87322e+06 9.87272e+06 9.87224e+06 9.87177e+06 9.87131e+06 9.87087e+06 9.86986e+06 9.86883e+06
          9.86781e+06 9.8668e+06 9.8658e+06 9.86482e+06 9.86384e+06 9.86286e+06 9.8619e+06 9.86094e+06 9.85998e+06 9.85904e+06 9.85809e+06 9.85715e+06
          9.85622e+06 9.85528e+06 9.84906e+06 9.84981e+06 9.85056e+06 9.85132e+06 9.85208e+06 9.85284e+06 9.85361e+06 9.85438e+06 9.85516e+06 9.85594e+06
          9.85673e+06 9.85752e+06 9.85832e+06 9.85913e+06 9.85994e+06 9.86076e+06 9.86157e+06 9.86239e+06 9.86321e+06 9.86402e+06 9.86482e+06 9.8656e+06
          9.86636e+06 9.86708e+06 9.86775e+06 9.86836e+06 9.86891e+06 9.86937e+06 9.86974e+06 9.87001e+06 9.87018e+06 9.87026e+06 9.87024e+06 9.87012e+06
          9.87e+06 9.86982e+06 9.86957e+06 9.86926e+06 9.86891e+06 9.86852e+06 9.8681e+06 9.86766e+06 9.86721e+06 9.86676e+06 9.8663e+06 9.86585e+06
          9.8654e+06 9.86496e+06 9.86454e+06 9.86356e+06 9.86255e+06 9.86155e+06 9.86056e+06 9.85958e+06 9.8586e+06 9.85764e+06 9.85668e+06 9.85572e+06
          9.85477e+06 9.85382e+06 9.85288e+06 9.85195e+06 9.85101e+06 9.85008e+06 9.84915e+06 9.84293e+06 9.84367e+06 9.84441e+06 9.84516e+06 9.84591e+06
          9.84666e+06 9.84741e+06 9.84817e+06 9.84893e+06 9.8497e+06 9.85047e+06 9.85124e+06 9.85202e+06 9.8528e+06 9.85358e+06 9.85437e+06 9.85515e+06
          9.85593e+06 9.85671e+06 9.85747e+06 9.85822e+06 9.85895e+06 9.85965e+06 9.86032e+06 9.86094e+06 9.8615e+06 9.862e+06 9.86243e+06 9.86278e+06
          9.86304e+06 9.86322e+06 9.86331e+06 9.86332e+06 9.86326e+06 9.86316e+06 9.86301e+06 9.8628e+06 9.86253e+06 9.86223e+06 9.86189e+06 9.86152e+06
          9.86112e+06 9.86071e+06 9.8603e+06 9.85987e+06 9.85945e+06 9.85903e+06 9.85861e+06 9.85819e+06 9.85724e+06 9.85626e+06 9.85528e+06 9.85431e+06
          9.85335e+06 9.85239e+06 9.85143e+06 9.85048e+06 9.84954e+06 9.8486e+06 9.84766e+06 9.84673e+06 9.8458e+06 9.84487e+06 9.84394e+06 9.84302e+06
          9.83679e+06 9.83752e+06 9.83826e+06 9.83899e+06 9.83973e+06 9.84047e+06 9.84121e+06 9.84196e+06 9.8427e+06 9.84345e+06 9.8442e+06 9.84496e+06
          9.84572e+06 9.84647e+06 9.84723e+06 9.84798e+06 9.84873e+06 9.84948e+06 9.85021e+06 9.85094e+06 9.85164e+06 9.85233e+06 9.85298e+06 9.8536e+06
          9.85418e+06 9.8547e+06 9.85517e+06 9.85557e+06 9.8559e+06 9.85616e+06 9.85634e+06 9.85645e+06 9.85649e+06 9.85646e+06 9.85638e+06 9.85626e+06
          9.85608e+06 9.85585e+06 9.85558e+06 9.85528e+06 9.85495e+06 9.8546e+06 9.85422e+06 9.85384e+06 9.85345e+06 9.85305e+06 9.85265e+06 9.85225e+06
          9.85185e+06 9.85092e+06 9.84996e+06 9.84901e+06 9.84806e+06 9.84711e+06 9.84616e+06 9.84522e+06 9.84429e+06 9.84335e+06 9.84242e+06 9.84149e+06
          9.84057e+06 9.83964e+06 9.83872e+06 9.8378e+06 9.83688e+06 9.83066e+06 9.83138e+06 9.8321e+06 9.83283e+06 9.83355e+06 9.83428e+06 9.83501e+06
          9.83574e+06 9.83647e+06 9.8372e+06 9.83794e+06 9.83867e+06 9.83941e+06 9.84014e+06 9.84087e+06 9.8416e+06 9.84232e+06 9.84303e+06 9.84373e+06
          9.84442e+06 9.84509e+06 9.84573e+06 9.84635e+06 9.84693e+06 9.84747e+06 9.84796e+06 9.8484e+06 9.84878e+06 9.8491e+06 9.84936e+06 9.84954e+06
          9.84967e+06 9.84972e+06 9.84972e+06 9.84966e+06 9.84956e+06 9.8494e+06 9.84921e+06 9.84897e+06 9.8487e+06 9.84841e+06 9.84809e+06 9.84775e+06
          9.84739e+06 9.84702e+06 9.84665e+06 9.84627e+06 9.84588e+06 9.8455e+06 9.8446e+06 9.84366e+06 9.84273e+06 9.8418e+06 9.84087e+06 9.83994e+06
          9.83901e+06 9.83809e+06 9.83716e+06 9.83624e+06 9.83532e+06 9.83441e+06 9.83349e+06 9.83258e+06 9.83166e+06 9.83075e+06 9.82452e+06 9.82523e+06
          9.82594e+06 9.82666e+06 9.82737e+06 9.82809e+06 9.8288e+06 9.82952e+06 9.83024e+06 9.83096e+06 9.83167e+06 9.83239e+06 9.8331e+06 9.83381e+06
          9.83452e+06 9.83522e+06 9.83591e+06 9.8366e+06 9.83727e+06 9.83792e+06 9.83856e+06 9.83917e+06 9.83975e+06 9.8403e+06 9.84081e+06 9.84127e+06
          9.84169e+06 9.84206e+06 9.84237e+06 9.84262e+06 9.84281e+06 9.84294e+06 9.84302e+06 9.84303e+06 9.84299e+06 9.8429e+06 9.84277e+06 9.8426e+06
          9.8424e+06 9.84216e+06 9.84189e+06 9.8416e+06 9.84128e+06 9.84095e+06 9.84061e+06 9.84026e+06 9.83989e+06 9.83952e+06 9.83915e+06 9.83828e+06
          9.83736e+06 9.83645e+06 9.83554e+06 9.83462e+06 9.83371e+06 9.8328e+06 9.83188e+06 9.83097e+06 9.83006e+06 9.82915e+06 9.82824e+06 9.82734e+06
          9.82643e+06 9.82552e+06 9.82462e+06 9.81838e+06 9.81908e+06 9.81979e+06 9.82049e+06 9.82119e+06 9.8219e+06 9.8226e+06 9.8233e+06 9.824e+06
          9.82471e+06 9.82541e+06 9.8261e+06 9.8268e+06 9.82749e+06 9.82817e+06 9.82885e+06 9.82952e+06 9.83017e+06 9.83082e+06 9.83144e+06 9.83205e+06
          9.83263e+06 9.83318e+06 9.8337e+06 9.83419e+06 9.83463e+06 9.83503e+06 9.83538e+06 9.83569e+06 9.83594e+06 9.83614e+06 9.83628e+06 9.83637e+06
          9.83639e+06 9.83636e+06 9.8363e+06 9.83619e+06 9.83604e+06 9.83585e+06 9.83564e+06 9.8354e+06 9.83513e+06 9.83484e+06 9.83453e+06 9.83421e+06
          9.83387e+06 9.83352e+06 9.83317e+06 9.8328e+06 9.83195e+06 9.83107e+06 9.83017e+06 9.82928e+06 9.82838e+06 9.82748e+06 9.82658e+06 9.82568e+06
          9.82478e+06 9.82388e+06 9.82298e+06 9.82208e+06 9.82118e+06 9.82028e+06 9.81938e+06 9.81848e+06 9.81225e+06 9.81294e+06 9.81363e+06 9.81432e+06
          9.81501e+06 9.8157e+06 9.8164e+06 9.81708e+06 9.81777e+06 9.81846e+06 9.81914e+06 9.81982e+06 9.8205e+06 9.82117e+06 9.82183e+06 9.82249e+06
          9.82313e+06 9.82377e+06 9.82438e+06 9.82498e+06 9.82556e+06 9.82612e+06 9.82665e+06 9.82715e+06 9.82761e+06 9.82804e+06 9.82842e+06 9.82876e+06
          9.82906e+06 9.82931e+06 9.82951e+06 9.82967e+06 9.82977e+06 9.8298e+06 9.82978e+06 9.82973e+06 9.82964e+06 9.82951e+06 9.82934e+06 9.82915e+06
          9.82893e+06 9.82868e+06 9.82841e+06 9.82812e+06 9.82782e+06 9.8275e+06 9.82716e+06 9.82682e+06 9.82647e+06 9.82564e+06 9.82477e+06 9.8239e+06
          9.82302e+06 9.82214e+06 9.82125e+06 9.82037e+06 9.81948e+06 9.81859e+06 9.8177e+06 9.8168e+06 9.81591e+06 9.81502e+06 9.81413e+06 9.81324e+06
          9.81235e+06 9.80611e+06 9.80679e+06 9.80747e+06 9.80815e+06 9.80883e+06 9.80951e+06 9.81019e+06 9.81087e+06 9.81154e+06 9.81221e+06 9.81288e+06
          9.81355e+06 9.8142e+06 9.81486e+06 9.8155e+06 9.81614e+06 9.81676e+06 9.81737e+06 9.81797e+06 9.81855e+06 9.8191e+06 9.81964e+06 9.82015e+06
          9.82062e+06 9.82107e+06 9.82148e+06 9.82186e+06 9.82219e+06 9.82248e+06 9.82273e+06 9.82294e+06 9.8231e+06 9.82322e+06 9.82325e+06 9.82324e+06
          9.8232e+06 9.82312e+06 9.82301e+06 9.82286e+06 9.82268e+06 9.82248e+06 9.82225e+06 9.822e+06 9.82173e+06 9.82144e+06 9.82114e+06 9.82082e+06
          9.82048e+06 9.82014e+06 9.81933e+06 9.81848e+06 9.81763e+06 9.81677e+06 9.8159e+06 9.81503e+06 9.81415e+06 9.81328e+06 9.8124e+06 9.81151e+06
          9.81063e+06 9.80975e+06 9.80886e+06 9.80798e+06 9.8071e+06 9.80621e+06 9.79997e+06 9.80064e+06 9.80132e+06 9.80199e+06 9.80266e+06 9.80332e+06
          9.80399e+06 9.80465e+06 9.80531e+06 9.80597e+06 9.80663e+06 9.80727e+06 9.80792e+06 9.80855e+06 9.80918e+06 9.8098e+06 9.8104e+06 9.81099e+06
          9.81157e+06 9.81213e+06 9.81267e+06 9.81318e+06 9.81367e+06 9.81414e+06 9.81457e+06 9.81497e+06 9.81533e+06 9.81566e+06 9.81595e+06 9.8162e+06
          9.8164e+06 9.81658e+06 9.8167e+06 9.81674e+06 9.81674e+06 9.81671e+06 9.81664e+06 9.81654e+06 9.81641e+06 9.81625e+06 9.81606e+06 9.81585e+06
          9.81561e+06 9.81536e+06 9.81508e+06 9.81479e+06 9.81448e+06 9.81416e+06 9.81382e+06 9.81303e+06 9.8122e+06 9.81136e+06 9.81052e+06 9.80966e+06
          9.8088e+06 9.80794e+06 9.80708e+06 9.8062e+06 9.80533e+06 9.80446e+06 9.80358e+06 9.80271e+06 9.80183e+06 9.80095e+06 9.80008e+06 9.79384e+06
          9.7945e+06 9.79516e+06 9.79582e+06 9.79648e+06 9.79713e+06 9.79779e+06 9.79844e+06 9.79909e+06 9.79973e+06 9.80037e+06 9.80101e+06 9.80164e+06
          9.80226e+06 9.80287e+06 9.80347e+06 9.80406e+06 9.80463e+06 9.80519e+06 9.80573e+06 9.80625e+06 9.80675e+06 9.80723e+06 9.80768e+06 9.8081e+06
          9.80848e+06 9.80884e+06 9.80916e+06 9.80945e+06 9.8097e+06 9.80991e+06 9.81009e+06 9.81023e+06 9.81027e+06 9.81028e+06 9.81026e+06 9.8102e+06
          9.81011e+06 9.80999e+06 9.80984e+06 9.80967e+06 9.80947e+06 9.80925e+06 9.809e+06 9.80874e+06 9.80846e+06 9.80816e+06 9.80785e+06 9.80752e+06
          9.80675e+06 9.80593e+06 9.80511e+06 9.80427e+06 9.80343e+06 9.80259e+06 9.80173e+06 9.80088e+06 9.80002e+06 9.79916e+06 9.79829e+06 9.79742e+06
          9.79655e+06 9.79568e+06 9.79481e+06 9.79394e+06 9.7877e+06 9.78835e+06 9.789e+06 9.78965e+06 9.7903e+06 9.79095e+06 9.79159e+06 9.79223e+06
          9.79287e+06 9.7935e+06 9.79413e+06 9.79475e+06 9.79536e+06 9.79597e+06 9.79656e+06 9.79715e+06 9.79772e+06 9.79828e+06 9.79883e+06 9.79935e+06
          9.79986e+06 9.80034e+06 9.80081e+06 9.80124e+06 9.80165e+06 9.80204e+06 9.80238e+06 9.8027e+06 9.80299e+06 9.80324e+06 9.80346e+06 9.80364e+06
          9.80379e+06 9.80383e+06 9.80385e+06 9.80383e+06 9.80378e+06 9.8037e+06 9.8036e+06 9.80346e+06 9.8033e+06 9.80311e+06 9.8029e+06 9.80267e+06
          9.80242e+06 9.80214e+06 9.80186e+06 9.80155e+06 9.80123e+06 9.80047e+06 9.79967e+06 9.79886e+06 9.79804e+06 9.79721e+06 9.79637e+06 9.79553e+06
          9.79468e+06 9.79383e+06 9.79298e+06 9.79212e+06 9.79126e+06 9.7904e+06 9.78954e+06 9.78867e+06 9.78781e+06 9.78156e+06 9.78221e+06 9.78285e+06
          9.78349e+06 9.78413e+06 9.78476e+06 9.7854e+06 9.78603e+06 9.78665e+06 9.78727e+06 9.78789e+06 9.7885e+06 9.7891e+06 9.78969e+06 9.79027e+06
          9.79085e+06 9.7914e+06 9.79195e+06 9.79248e+06 9.79299e+06 9.79349e+06 9.79396e+06 9.79441e+06 9.79484e+06 9.79524e+06 9.79562e+06 9.79596e+06
          9.79628e+06 9.79656e+06 9.79682e+06 9.79704e+06 9.79723e+06 9.79738e+06 9.79743e+06 9.79745e+06 9.79744e+06 9.7974e+06 9.79733e+06 9.79723e+06
          9.79711e+06 9.79695e+06 9.79678e+06 9.79658e+06 9.79635e+06 9.79611e+06 9.79585e+06 9.79557e+06 9.79527e+06 9.79495e+06 9.79421e+06 9.79342e+06
          9.79262e+06 9.79181e+06 9.79099e+06 9.79017e+06 9.78933e+06 9.78849e+06 9.78765e+06 9.7868e+06 9.78595e+06 9.7851e+06 9.78425e+06 9.78339e+06
          9.78253e+06 9.78167e+06 9.77543e+06 9.77606e+06 9.7767e+06 9.77733e+06 9.77796e+06 9.77858e+06 9.77921e+06 9.77983e+06 9.78044e+06 9.78105e+06
          9.78166e+06 9.78225e+06 9.78284e+06 9.78342e+06 9.78399e+06 9.78455e+06 9.7851e+06 9.78563e+06 9.78615e+06 9.78665e+06 9.78714e+06 9.7876e+06
          9.78804e+06 9.78846e+06 9.78886e+06 9.78923e+06 9.78957e+06 9.78988e+06 9.79017e+06 9.79042e+06 9.79065e+06 9.79084e+06 9.791e+06 9.79106e+06
          9.79108e+06 9.79108e+06 9.79105e+06 9.79098e+06 9.7909e+06 9.79078e+06 9.79063e+06 9.79047e+06 9.79027e+06 9.79006e+06 9.78982e+06 9.78957e+06
          9.78929e+06 9.789e+06 9.78869e+06 9.78796e+06 9.78718e+06 9.78639e+06 9.78559e+06 9.78478e+06 9.78396e+06 9.78314e+06 9.78231e+06 9.78147e+06
          9.78063e+06 9.77979e+06 9.77894e+06 9.77809e+06 9.77724e+06 9.77639e+06 9.77554e+06 9.76929e+06 9.76992e+06 9.77054e+06 9.77117e+06 9.77179e+06
          9.7724e+06 9.77302e+06 9.77363e+06 9.77424e+06 9.77484e+06 9.77543e+06 9.77602e+06 9.7766e+06 9.77716e+06 9.77772e+06 9.77827e+06 9.77881e+06
          9.77933e+06 9.77984e+06 9.78033e+06 9.7808e+06 9.78126e+06 9.78169e+06 9.78211e+06 9.7825e+06 9.78286e+06 9.7832e+06 9.78352e+06 9.7838e+06
          9.78406e+06 9.78429e+06 9.78449e+06 9.78466e+06 9.78472e+06 9.78475e+06 9.78475e+06 9.78472e+06 9.78467e+06 9.78458e+06 9.78448e+06 9.78434e+06
          9.78418e+06 9.784e+06 9.78379e+06 9.78356e+06 9.78331e+06 9.78304e+06 9.78275e+06 9.78245e+06 9.78172e+06 9.78096e+06 9.78018e+06 9.77938e+06
          9.77858e+06 9.77777e+06 9.77695e+06 9.77613e+06 9.7753e+06 9.77447e+06 9.77363e+06 9.77279e+06 9.77194e+06 9.7711e+06 9.77025e+06 9.7694e+06
          9.76316e+06 9.76378e+06 9.76439e+06 9.76501e+06 9.76562e+06 9.76623e+06 9.76684e+06 9.76744e+06 9.76803e+06 9.76862e+06 9.76921e+06 9.76979e+06
          9.77036e+06 9.77092e+06 9.77147e+06 9.77201e+06 9.77253e+06 9.77304e+06 9.77354e+06 9.77403e+06 9.77449e+06 9.77494e+06 9.77537e+06 9.77578e+06
          9.77616e+06 9.77652e+06 9.77686e+06 9.77718e+06 9.77747e+06 9.77773e+06 9.77796e+06 9.77817e+06 9.77835e+06 9.77841e+06 9.77844e+06 9.77845e+06
          9.77843e+06 9.77838e+06 9.7783e+06 9.7782e+06 9.77807e+06 9.77792e+06 9.77774e+06 9.77754e+06 9.77731e+06 9.77707e+06 9.7768e+06 9.77652e+06
          9.77622e+06 9.7755e+06 9.77474e+06 9.77397e+06 9.77318e+06 9.77239e+06 9.77158e+06 9.77077e+06 9.76996e+06 9.76913e+06 9.7683e+06 9.76747e+06
          9.76663e+06 9.7658e+06 9.76496e+06 9.76411e+06 9.76327e+06 9.75702e+06 9.75763e+06 9.75824e+06 9.75885e+06 9.75946e+06 9.76006e+06 9.76066e+06
          9.76125e+06 9.76184e+06 9.76242e+06 9.763e+06 9.76357e+06 9.76413e+06 9.76468e+06 9.76522e+06 9.76575e+06 9.76627e+06 9.76677e+06 9.76726e+06
          9.76774e+06 9.7682e+06 9.76864e+06 9.76906e+06 9.76947e+06 9.76985e+06 9.77021e+06 9.77055e+06 9.77086e+06 9.77116e+06 9.77142e+06 9.77166e+06
          9.77188e+06 9.77206e+06 9.77212e+06 9.77216e+06 9.77218e+06 9.77216e+06 9.77212e+06 9.77204e+06 9.77195e+06 9.77182e+06 9.77168e+06 9.7715e+06
          9.77131e+06 9.77109e+06 9.77085e+06 9.77059e+06 9.77031e+06 9.77001e+06 9.7693e+06 9.76854e+06 9.76778e+06 9.767e+06 9.76621e+06 9.76541e+06
          9.7646e+06 9.76379e+06 9.76297e+06 9.76214e+06 9.76132e+06 9.76048e+06 9.75965e+06 9.75881e+06 9.75798e+06 9.75714e+06 9.75089e+06 9.75149e+06
          9.7521e+06 9.7527e+06 9.7533e+06 9.75389e+06 9.75448e+06 9.75507e+06 9.75565e+06 9.75622e+06 9.75679e+06 9.75736e+06 9.75791e+06 9.75845e+06
          9.75898e+06 9.75951e+06 9.76002e+06 9.76052e+06 9.761e+06 9.76147e+06 9.76192e+06 9.76236e+06 9.76278e+06 9.76318e+06 9.76356e+06 9.76392e+06
          9.76426e+06 9.76458e+06 9.76487e+06 9.76514e+06 9.76539e+06 9.76561e+06 9.7658e+06 9.76587e+06 9.76591e+06 9.76593e+06 9.76592e+06 9.76588e+06
          9.76582e+06 9.76572e+06 9.7656e+06 9.76546e+06 9.76529e+06 9.7651e+06 9.76489e+06 9.76465e+06 9.76439e+06 9.76412e+06 9.76382e+06 9.76311e+06
          9.76236e+06 9.7616e+06 9.76082e+06 9.76003e+06 9.75924e+06 9.75843e+06 9.75762e+06 9.75681e+06 9.75599e+06 9.75516e+06 9.75434e+06 9.7535e+06
          9.75267e+06 9.75184e+06 9.751e+06 9.74476e+06 9.74535e+06 9.74595e+06 9.74654e+06 9.74714e+06 9.74773e+06 9.74831e+06 9.74889e+06 9.74947e+06
          9.75004e+06 9.7506e+06 9.75115e+06 9.7517e+06 9.75223e+06 9.75276e+06 9.75328e+06 9.75378e+06 9.75427e+06 9.75475e+06 9.75521e+06 9.75566e+06
          9.75609e+06 9.75651e+06 9.75691e+06 9.75729e+06 9.75765e+06 9.75799e+06 9.75831e+06 9.75861e+06 9.75889e+06 9.75914e+06 9.75937e+06 9.75957e+06
          9.75964e+06 9.75969e+06 9.75971e+06 9.7597e+06 9.75967e+06 9.75961e+06 9.75952e+06 9.75941e+06 9.75927e+06 9.75911e+06 9.75892e+06 9.75871e+06
          9.75847e+06 9.75822e+06 9.75794e+06 9.75764e+06 9.75694e+06 9.75619e+06 9.75542e+06 9.75465e+06 9.75387e+06 9.75307e+06 9.75227e+06 9.75146e+06
          9.75065e+06 9.74984e+06 9.74901e+06 9.74819e+06 9.74736e+06 9.74653e+06 9.7457e+06 9.74487e+06 9.73862e+06 9.73921e+06 9.73981e+06 9.7404e+06
          9.74098e+06 9.74157e+06 9.74214e+06 9.74272e+06 9.74329e+06 9.74385e+06 9.74441e+06 9.74496e+06 9.7455e+06 9.74602e+06 9.74655e+06 9.74706e+06
          9.74755e+06 9.74804e+06 9.74851e+06 9.74897e+06 9.74942e+06 9.74985e+06 9.75026e+06 9.75066e+06 9.75104e+06 9.7514e+06 9.75174e+06 9.75206e+06
          9.75237e+06 9.75265e+06 9.75291e+06 9.75315e+06 9.75336e+06 9.75344e+06 9.75349e+06 9.75352e+06 9.75352e+06 9.75349e+06 9.75344e+06 9.75335e+06
          9.75324e+06 9.75311e+06 9.75295e+06 9.75276e+06 9.75255e+06 9.75232e+06 9.75206e+06 9.75178e+06 9.75149e+06 9.75078e+06 9.75003e+06 9.74927e+06
          9.74849e+06 9.74771e+06 9.74692e+06 9.74612e+06 9.74531e+06 9.7445e+06 9.74369e+06 9.74287e+06 9.74205e+06 9.74122e+06 9.7404e+06 9.73957e+06
          9.73874e+06 9.73249e+06 9.73308e+06 9.73366e+06 9.73425e+06 9.73483e+06 9.73541e+06 9.73598e+06 9.73655e+06 9.73712e+06 9.73768e+06 9.73822e+06
          9.73877e+06 9.7393e+06 9.73983e+06 9.74034e+06 9.74085e+06 9.74134e+06 9.74182e+06 9.74229e+06 9.74275e+06 9.74319e+06 9.74362e+06 9.74403e+06
          9.74442e+06 9.7448e+06 9.74517e+06 9.74551e+06 9.74584e+06 9.74615e+06 9.74644e+06 9.74671e+06 9.74696e+06 9.74718e+06 9.74727e+06 9.74732e+06
          9.74736e+06 9.74736e+06 9.74734e+06 9.74729e+06 9.74721e+06 9.7471e+06 9.74697e+06 9.74681e+06 9.74662e+06 9.74642e+06 9.74618e+06 9.74593e+06
          9.74565e+06 9.74535e+06 9.74464e+06 9.74389e+06 9.74312e+06 9.74234e+06 9.74156e+06 9.74077e+06 9.73997e+06 9.73916e+06 9.73836e+06 9.73754e+06
          9.73673e+06 9.73591e+06 9.73508e+06 9.73426e+06 9.73343e+06 9.73261e+06 9.72636e+06 9.72694e+06 9.72752e+06 9.72811e+06 9.72868e+06 9.72926e+06
          9.72983e+06 9.73039e+06 9.73095e+06 9.7315e+06 9.73205e+06 9.73259e+06 9.73312e+06 9.73364e+06 9.73415e+06 9.73465e+06 9.73514e+06 9.73562e+06
          9.73608e+06 9.73654e+06 9.73697e+06 9.7374e+06 9.73781e+06 9.7382e+06 9.73859e+06 9.73895e+06 9.7393e+06 9.73963e+06 9.73995e+06 9.74025e+06
          9.74053e+06 9.74079e+06 9.74103e+06 9.74112e+06 9.74118e+06 9.74122e+06 9.74123e+06 9.74121e+06 9.74116e+06 9.74109e+06 9.74099e+06 9.74086e+06
          9.7407e+06 9.74052e+06 9.7403e+06 9.74007e+06 9.73981e+06 9.73953e+06 9.73923e+06 9.73851e+06 9.73776e+06 9.73698e+06 9.7362e+06 9.73542e+06
          9.73462e+06 9.73383e+06 9.73302e+06 9.73221e+06 9.7314e+06 9.73059e+06 9.72977e+06 9.72895e+06 9.72812e+06 9.7273e+06 9.72648e+06 9.72022e+06
          9.72081e+06 9.72139e+06 9.72196e+06 9.72254e+06 9.72311e+06 9.72368e+06 9.72424e+06 9.72479e+06 9.72534e+06 9.72588e+06 9.72642e+06 9.72694e+06
          9.72746e+06 9.72797e+06 9.72846e+06 9.72895e+06 9.72942e+06 9.72989e+06 9.73034e+06 9.73077e+06 9.7312e+06 9.73161e+06 9.732e+06 9.73238e+06
          9.73275e+06 9.7331e+06 9.73344e+06 9.73377e+06 9.73408e+06 9.73437e+06 9.73465e+06 9.7349e+06 9.735e+06 9.73507e+06 9.73511e+06 9.73513e+06
          9.73511e+06 9.73507e+06 9.735e+06 9.7349e+06 9.73477e+06 9.73461e+06 9.73443e+06 9.73422e+06 9.73398e+06 9.73372e+06 9.73344e+06 9.73313e+06
          9.7324e+06 9.73164e+06 9.73086e+06 9.73007e+06 9.72928e+06 9.72849e+06 9.72769e+06 9.72688e+06 9.72608e+06 9.72526e+06 9.72445e+06 9.72363e+06
          9.72281e+06 9.72199e+06 9.72117e+06 9.72034e+06 9.71409e+06 9.71467e+06 9.71525e+06 9.71583e+06 9.7164e+06 9.71697e+06 9.71753e+06 9.71809e+06
          9.71864e+06 9.71919e+06 9.71973e+06 9.72026e+06 9.72078e+06 9.72129e+06 9.7218e+06 9.72229e+06 9.72277e+06 9.72324e+06 9.7237e+06 9.72415e+06
          9.72459e+06 9.72501e+06 9.72542e+06 9.72582e+06 9.7262e+06 9.72657e+06 9.72692e+06 9.72727e+06 9.7276e+06 9.72792e+06 9.72823e+06 9.72852e+06
          9.7288e+06 9.7289e+06 9.72898e+06 9.72903e+06 9.72905e+06 9.72905e+06 9.72901e+06 9.72894e+06 9.72884e+06 9.72871e+06 9.72856e+06 9.72837e+06
          9.72816e+06 9.72792e+06 9.72765e+06 9.72736e+06 9.72705e+06 9.72631e+06 9.72553e+06 9.72474e+06 9.72395e+06 9.72315e+06 9.72235e+06 9.72155e+06
          9.72075e+06 9.71994e+06 9.71913e+06 9.71832e+06 9.7175e+06 9.71668e+06 9.71586e+06 9.71504e+06 9.71421e+06 9.70796e+06 9.70854e+06 9.70912e+06
          9.7097e+06 9.71027e+06 9.71083e+06 9.71139e+06 9.71195e+06 9.7125e+06 9.71304e+06 9.71358e+06 9.7141e+06 9.71462e+06 9.71513e+06 9.71563e+06
          9.71612e+06 9.7166e+06 9.71708e+06 9.71753e+06 9.71798e+06 9.71841e+06 9.71884e+06 9.71924e+06 9.71964e+06 9.72002e+06 9.7204e+06 9.72076e+06
          9.7211e+06 9.72144e+06 9.72177e+06 9.7221e+06 9.72241e+06 9.72271e+06 9.72283e+06 9.72292e+06 9.72298e+06 9.72301e+06 9.72301e+06 9.72297e+06
          9.72291e+06 9.72281e+06 9.72268e+06 9.72253e+06 9.72234e+06 9.72213e+06 9.72188e+06 9.72161e+06 9.72131e+06 9.72099e+06 9.72022e+06 9.71942e+06
          9.71862e+06 9.71782e+06 9.71702e+06 9.71622e+06 9.71542e+06 9.71462e+06 9.71381e+06 9.713e+06 9.71219e+06 9.71137e+06 9.71055e+06 9.70973e+06
          9.70891e+06 9.70808e+06 9.70183e+06 9.70241e+06 9.70299e+06 9.70357e+06 9.70414e+06 9.7047e+06 9.70526e+06 9.70581e+06 9.70636e+06 9.7069e+06
          9.70743e+06 9.70796e+06 9.70847e+06 9.70898e+06 9.70948e+06 9.70997e+06 9.71045e+06 9.71092e+06 9.71137e+06 9.71182e+06 9.71225e+06 9.71267e+06
          9.71308e+06 9.71348e+06 9.71386e+06 9.71424e+06 9.7146e+06 9.71495e+06 9.7153e+06 9.71563e+06 9.71597e+06 9.71631e+06 9.71665e+06 9.71678e+06
          9.7169e+06 9.71697e+06 9.717e+06 9.717e+06 9.71697e+06 9.71691e+06 9.71681e+06 9.71669e+06 9.71653e+06 9.71634e+06 9.71613e+06 9.71588e+06
          9.7156e+06 9.71528e+06 9.71494e+06 9.71414e+06 9.71332e+06 9.71251e+06 9.7117e+06 9.7109e+06 9.7101e+06 9.70929e+06 9.70849e+06 9.70768e+06
          9.70687e+06 9.70606e+06 9.70524e+06 9.70443e+06 9.70361e+06 9.70278e+06 9.70195e+06 9.6957e+06 9.69629e+06 9.69687e+06 9.69744e+06 9.69801e+06
          9.69857e+06 9.69913e+06 9.69968e+06 9.70023e+06 9.70076e+06 9.7013e+06 9.70182e+06 9.70234e+06 9.70284e+06 9.70334e+06 9.70383e+06 9.7043e+06
          9.70477e+06 9.70523e+06 9.70567e+06 9.7061e+06 9.70652e+06 9.70693e+06 9.70733e+06 9.70771e+06 9.70809e+06 9.70845e+06 9.7088e+06 9.70915e+06
          9.7095e+06 9.70984e+06 9.7102e+06 9.71058e+06 9.71078e+06 9.71091e+06 9.71099e+06 9.71103e+06 9.71103e+06 9.711e+06 9.71094e+06 9.71084e+06
          9.71072e+06 9.71056e+06 9.71037e+06 9.71016e+06 9.7099e+06 9.70962e+06 9.70928e+06 9.70888e+06 9.70804e+06 9.7072e+06 9.70638e+06 9.70558e+06