<?xml version="1.0"?>
<VTKFile type="UnstructuredGrid" version="0.1" byte_order="LittleEndian">
  <UnstructuredGrid>
    <Piece NumberOfCells="4096" NumberOfPoints="4225">
      <PointData Scalars="pressure_liquid">
        <DataArray type="Float32" Name="pressure_liquid" NumberOfComponents="1" format="ascii">
          9.90933e+06 9.91092e+06 9.90424e+06 9.90492e+06 9.91187e+06 9.90579e+06 9.91273e+06 9.90663e+06 9.91357e+06 9.90746e+06 9.91441e+06 9.9083e+06
          9.91524e+06 9.90913e+06 9.91609e+06 9.90997e+06 9.91694e+06 9.91083e+06 9.91781e+06 9.91169e+06 9.9187e+06 9.91258e+06 9.9196e+06 9.91348e+06
          9.92053e+06 9.91441e+06 9.92149e+06 9.91536e+06 9.92248e+06 9.91635e+06 9.9235e+06 9.91737e+06 9.92458e+06 9.91844e+06 9.92571e+06 9.91956e+06
          9.9269e+06 9.92075e+06 9.92818e+06 9.92202e+06 9.92956e+06 9.92339e+06 9.93108e+06 9.92488e+06 9.93278e+06 9.92655e+06 9.93465e+06 9.92848e+06
          9.93786e+06 9.93049e+06 9.94025e+06 9.93441e+06 9.94268e+06 9.93676e+06 9.94442e+06 9.93843e+06 9.94554e+06 9.93952e+06 9.94612e+06 9.94009e+06
          9.94619e+06 9.94016e+06 9.94574e+06 9.93973e+06 9.94472e+06 9.93875e+06 9.94334e+06 9.93684e+06 9.94215e+06 9.93592e+06 9.94113e+06 9.93497e+06
          9.94004e+06 9.93393e+06 9.93879e+06 9.93273e+06 9.93726e+06 9.93127e+06 9.93529e+06 9.92941e+06 9.93305e+06 9.9268e+06 9.93138e+06 9.92554e+06
          9.93038e+06 9.92444e+06 9.92944e+06 9.92351e+06 9.92862e+06 9.92269e+06 9.9279e+06 9.92198e+06 9.92728e+06 9.92136e+06 9.92677e+06 9.92083e+06
          9.92642e+06 9.92037e+06 9.92546e+06 9.91936e+06 9.92442e+06 9.91831e+06 9.92337e+06 9.91726e+06 9.92233e+06 9.91622e+06 9.9213e+06 9.91519e+06
          9.92028e+06 9.91417e+06 9.91927e+06 9.91316e+06 9.91827e+06 9.91216e+06 9.91728e+06 9.91117e+06 9.91629e+06 9.91018e+06 9.9153e+06 9.9092e+06
          9.91432e+06 9.90821e+06 9.91332e+06 9.90722e+06 9.9123e+06 9.90622e+06 9.91118e+06 9.90519e+06 9.90941e+06 9.90436e+06 9.89826e+06 9.89896e+06
          9.89973e+06 9.90054e+06 9.90136e+06 9.90218e+06 9.90301e+06 9.90385e+06 9.9047e+06 9.90556e+06 9.90644e+06 9.90734e+06 9.90826e+06 9.9092e+06
          9.91018e+06 9.91119e+06 9.91225e+06 9.91336e+06 9.91452e+06 9.91576e+06 9.91709e+06 9.91853e+06 9.9201e+06 9.92184e+06 9.92384e+06 9.92604e+06
          9.9281e+06 9.9296e+06 9.9306e+06 9.93114e+06 9.93122e+06 9.93085e+06 9.93001e+06 9.92872e+06 9.92796e+06 9.92714e+06 9.92622e+06 9.92514e+06
          9.92387e+06 9.92234e+06 9.92071e+06 9.91944e+06 9.91838e+06 9.91746e+06 9.91666e+06 9.91596e+06 9.91534e+06 9.9148e+06 9.91432e+06 9.91326e+06
          9.91219e+06 9.91113e+06 9.91009e+06 9.90906e+06 9.90804e+06 9.90704e+06 9.90604e+06 9.90505e+06 9.90406e+06 9.90308e+06 9.90211e+06 9.90114e+06
          9.90017e+06 9.89924e+06 9.89838e+06 9.89217e+06 9.8929e+06 9.89366e+06 9.89445e+06 9.89525e+06 9.89606e+06 9.89688e+06 9.89771e+06 9.89855e+06
          9.89941e+06 9.90028e+06 9.90117e+06 9.90208e+06 9.90301e+06 9.90398e+06 9.90497e+06 9.90601e+06 9.90709e+06 9.90822e+06 9.90941e+06 9.91068e+06
          9.91203e+06 9.91348e+06 9.91503e+06 9.91668e+06 9.91834e+06 9.91984e+06 9.92105e+06 9.9219e+06 9.92238e+06 9.92248e+06 9.92221e+06 9.92157e+06
          9.92055e+06 9.92e+06 9.91933e+06 9.91854e+06 9.91762e+06 9.91657e+06 9.91542e+06 9.91425e+06 9.91315e+06 9.91217e+06 9.91131e+06 9.91054e+06
          9.90986e+06 9.90925e+06 9.9087e+06 9.90822e+06 9.90714e+06 9.90606e+06 9.905e+06 9.90395e+06 9.90292e+06 9.90191e+06 9.9009e+06 9.89991e+06
          9.89892e+06 9.89794e+06 9.89697e+06 9.896e+06 9.89505e+06 9.8941e+06 9.89318e+06 9.8923e+06 9.88606e+06 9.8868e+06 9.88756e+06 9.88834e+06
          9.88913e+06 9.88993e+06 9.89074e+06 9.89156e+06 9.89239e+06 9.89324e+06 9.8941e+06 9.89498e+06 9.89588e+06 9.8968e+06 9.89774e+06 9.89872e+06
          9.89972e+06 9.90077e+06 9.90186e+06 9.903e+06 9.90419e+06 9.90544e+06 9.90675e+06 9.90811e+06 9.90949e+06 9.91083e+06 9.91203e+06 9.91303e+06
          9.91375e+06 9.91418e+06 9.9143e+06 9.91411e+06 9.91364e+06 9.91293e+06 9.91249e+06 9.91192e+06 9.91124e+06 9.91045e+06 9.90957e+06 9.90862e+06
          9.90766e+06 9.90672e+06 9.90585e+06 9.90506e+06 9.90434e+06 9.90368e+06 9.90309e+06 9.90255e+06 9.90207e+06 9.90099e+06 9.8999e+06 9.89884e+06
          9.8978e+06 9.89677e+06 9.89576e+06 9.89476e+06 9.89377e+06 9.89279e+06 9.89182e+06 9.89085e+06 9.88989e+06 9.88895e+06 9.88801e+06 9.88709e+06
          9.88619e+06 9.87994e+06 9.88069e+06 9.88144e+06 9.88222e+06 9.883e+06 9.88379e+06 9.88459e+06 9.8854e+06 9.88622e+06 9.88706e+06 9.88791e+06
          9.88877e+06 9.88965e+06 9.89055e+06 9.89148e+06 9.89242e+06 9.8934e+06 9.89441e+06 9.89545e+06 9.89652e+06 9.89764e+06 9.89879e+06 9.89996e+06
          9.90116e+06 9.90233e+06 9.90345e+06 9.90445e+06 9.90528e+06 9.9059e+06 9.90628e+06 9.90641e+06 9.90631e+06 9.90598e+06 9.90546e+06 9.9051e+06
          9.90463e+06 9.90406e+06 9.90339e+06 9.90264e+06 9.90185e+06 9.90103e+06 9.90023e+06 9.89946e+06 9.89874e+06 9.89806e+06 9.89745e+06 9.89688e+06
          9.89635e+06 9.89587e+06 9.89481e+06 9.89372e+06 9.89267e+06 9.89163e+06 9.89061e+06 9.8896e+06 9.88861e+06 9.88762e+06 9.88665e+06 9.88568e+06
          9.88472e+06 9.88377e+06 9.88283e+06 9.8819e+06 9.88098e+06 9.88007e+06 9.87381e+06 9.87456e+06 9.87532e+06 9.87608e+06 9.87686e+06 9.87764e+06
          9.87843e+06 9.87923e+06 9.88004e+06 9.88086e+06 9.8817e+06 9.88255e+06 9.88341e+06 9.88429e+06 9.88519e+06 9.88611e+06 9.88705e+06 9.88801e+06
          9.889e+06 9.89001e+06 9.89105e+06 9.8921e+06 9.89316e+06 9.89421e+06 9.89523e+06 9.89619e+06 9.89704e+06 9.89774e+06 9.89828e+06 9.89863e+06
          9.89878e+06 9.89873e+06 9.8985e+06 9.89812e+06 9.89784e+06 9.89745e+06 9.89696e+06 9.8964e+06 9.89577e+06 9.8951e+06 9.8944e+06 9.8937e+06
          9.89301e+06 9.89236e+06 9.89174e+06 9.89116e+06 9.89062e+06 9.89011e+06 9.88964e+06 9.88859e+06 9.88752e+06 9.88647e+06 9.88544e+06 9.88443e+06
          9.88343e+06 9.88245e+06 9.88147e+06 9.8805e+06 9.87954e+06 9.87859e+06 9.87764e+06 9.87671e+06 9.87578e+06 9.87486e+06 9.87394e+06 9.86768e+06
          9.86843e+06 9.86918e+06 9.86994e+06 9.8707e+06 9.87148e+06 9.87226e+06 9.87305e+06 9.87385e+06 9.87466e+06 9.87548e+06 9.87631e+06 9.87715e+06
          9.87801e+06 9.87888e+06 9.87977e+06 9.88067e+06 9.88159e+06 9.88253e+06 9.88348e+06 9.88444e+06 9.8854e+06 9.88636e+06 9.8873e+06 9.8882e+06
          9.88903e+06 9.88977e+06 9.89038e+06 9.89086e+06 9.89118e+06 9.89134e+06 9.89134e+06 9.89119e+06 9.8909e+06 9.89068e+06 9.89036e+06 9.88996e+06
          9.88948e+06 9.88894e+06 9.88836e+06 9.88776e+06 9.88715e+06 9.88654e+06 9.88595e+06 9.88538e+06 9.88483e+06 9.88432e+06 9.88383e+06 9.88337e+06
          9.88234e+06 9.88129e+06 9.88026e+06 9.87924e+06 9.87824e+06 9.87725e+06 9.87628e+06 9.87531e+06 9.87434e+06 9.87339e+06 9.87245e+06 9.87151e+06
          9.87058e+06 9.86965e+06 9.86873e+06 9.86781e+06 9.86154e+06 9.86229e+06 9.86304e+06 9.86379e+06 9.86455e+06 9.86531e+06 9.86608e+06 9.86686e+06
          9.86764e+06 9.86844e+06 9.86924e+06 9.87005e+06 9.87088e+06 9.87171e+06 9.87255e+06 9.87341e+06 9.87428e+06 9.87515e+06 9.87604e+06 9.87693e+06
          9.87783e+06 9.87871e+06 9.87959e+06 9.88043e+06 9.88123e+06 9.88197e+06 9.88262e+06 9.88316e+06 9.8836e+06 9.8839e+06 9.88406e+06 9.8841e+06
          9.88401e+06 9.8838e+06 9.88362e+06 9.88336e+06 9.88302e+06 9.88261e+06 9.88216e+06 9.88166e+06 9.88113e+06 9.88059e+06 9.88005e+06 9.87951e+06
          9.87899e+06 9.87848e+06 9.87799e+06 9.87753e+06 9.87708e+06 9.87607e+06 9.87504e+06 9.87403e+06 9.87303e+06 9.87204e+06 9.87106e+06 9.87009e+06
          9.86913e+06 9.86818e+06 9.86724e+06 9.8663e+06 9.86536e+06 9.86444e+06 9.86352e+06 9.8626e+06 9.86168e+06 9.85541e+06 9.85615e+06 9.85689e+06
          9.85763e+06 9.85838e+06 9.85914e+06 9.8599e+06 9.86066e+06 9.86143e+06 9.86221e+06 9.863e+06 9.86379e+06 9.86459e+06 9.8654e+06 9.86622e+06
          9.86704e+06 9.86787e+06 9.86871e+06 9.86955e+06 9.87038e+06 9.87122e+06 9.87204e+06 9.87284e+06 9.8736e+06 9.87432e+06 9.87499e+06 9.87557e+06
          9.87607e+06 9.87646e+06 9.87675e+06 9.87692e+06 9.87698e+06 9.87694e+06 9.87679e+06 9.87665e+06 9.87644e+06 9.87615e+06 9.8758e+06 9.87541e+06
          9.87498e+06 9.87452e+06 9.87404e+06 9.87355e+06 9.87306e+06 9.87258e+06 9.87211e+06 9.87165e+06 9.8712e+06 9.87077e+06 9.86979e+06 9.86878e+06
          9.86778e+06 9.8668e+06 9.86582e+06 9.86486e+06 9.8639e+06 9.86295e+06 9.86201e+06 9.86107e+06 9.86014e+06 9.85922e+06 9.85829e+06 9.85738e+06
          9.85646e+06 9.85555e+06 9.84927e+06 9.85e+06 9.85074e+06 9.85147e+06 9.85221e+06 9.85296e+06 9.8537e+06 9.85446e+06 9.85521e+06 9.85598e+06
          9.85674e+06 9.85752e+06 9.8583e+06 9.85908e+06 9.85987e+06 9.86066e+06 9.86146e+06 9.86226e+06 9.86305e+06 9.86384e+06 9.86462e+06 9.86538e+06
          9.86612e+06 9.86682e+06 9.86748e+06 9.86808e+06 9.86862e+06 9.86907e+06 9.86944e+06 9.86971e+06 9.86989e+06 9.86997e+06 9.86996e+06 9.86987e+06
          9.86976e+06 9.86958e+06 9.86934e+06 9.86904e+06 9.8687e+06 9.86833e+06 9.86792e+06 9.86749e+06 9.86705e+06 9.86661e+06 9.86616e+06 9.86572e+06
          9.86528e+06 9.86486e+06 9.86444e+06 9.86349e+06 9.8625e+06 9.86153e+06 9.86056e+06 9.8596e+06 9.85865e+06 9.85771e+06 9.85677e+06 9.85583e+06
          9.8549e+06 9.85398e+06 9.85306e+06 9.85215e+06 9.85123e+06 9.85032e+06 9.84941e+06 9.84314e+06 9.84386e+06 9.84458e+06 9.84531e+06 9.84604e+06
          9.84677e+06 9.84751e+06 9.84825e+06 9.84899e+06 9.84974e+06 9.85049e+06 9.85124e+06 9.852e+06 9.85276e+06 9.85352e+06 9.85429e+06 9.85505e+06
          9.85581e+06 9.85656e+06 9.85731e+06 9.85804e+06 9.85875e+06 9.85944e+06 9.86008e+06 9.86069e+06 9.86124e+06 9.86174e+06 9.86216e+06 9.86251e+06
          9.86277e+06 9.86296e+06 9.86306e+06 9.86308e+06 9.86302e+06 9.86293e+06 9.86279e+06 9.86258e+06 9.86233e+06 9.86204e+06 9.8617e+06 9.86134e+06
          9.86096e+06 9.86056e+06 9.86016e+06 9.85974e+06 9.85933e+06 9.85892e+06 9.85851e+06 9.8581e+06 9.85718e+06 9.85622e+06 9.85526e+06 9.85431e+06
          9.85337e+06 9.85243e+06 9.8515e+06 9.85058e+06 9.84965e+06 9.84873e+06 9.84782e+06 9.8469e+06 9.846e+06 9.84509e+06 9.84418e+06 9.84328e+06
          9.837e+06 9.83771e+06 9.83843e+06 9.83914e+06 9.83986e+06 9.84058e+06 9.84131e+06 9.84204e+06 9.84276e+06 9.84349e+06 9.84423e+06 9.84496e+06
          9.8457e+06 9.84644e+06 9.84717e+06 9.84791e+06 9.84864e+06 9.84936e+06 9.85008e+06 9.85079e+06 9.85148e+06 9.85214e+06 9.85278e+06 9.85339e+06
          9.85396e+06 9.85447e+06 9.85493e+06 9.85533e+06 9.85566e+06 9.85592e+06 9.8561e+06 9.85622e+06 9.85626e+06 9.85624e+06 9.85617e+06 9.85605e+06
          9.85588e+06 9.85566e+06 9.8554e+06 9.85511e+06 9.85479e+06 9.85444e+06 9.85408e+06 9.85371e+06 9.85332e+06 9.85293e+06 9.85254e+06 9.85215e+06
          9.85176e+06 9.85086e+06 9.84992e+06 9.84899e+06 9.84806e+06 9.84714e+06 9.84621e+06 9.84529e+06 9.84438e+06 9.84347e+06 9.84256e+06 9.84165e+06
          9.84074e+06 9.83984e+06 9.83894e+06 9.83804e+06 9.83714e+06 9.83086e+06 9.83156e+06 9.83227e+06 9.83298e+06 9.83369e+06 9.8344e+06 9.83511e+06
          9.83582e+06 9.83653e+06 9.83725e+06 9.83796e+06 9.83868e+06 9.8394e+06 9.84011e+06 9.84082e+06 9.84153e+06 9.84224e+06 9.84293e+06 9.84362e+06
          9.84429e+06 9.84494e+06 9.84557e+06 9.84617e+06 9.84674e+06 9.84727e+06 9.84775e+06 9.84818e+06 9.84856e+06 9.84888e+06 9.84913e+06 9.84932e+06
          9.84945e+06 9.84952e+06 9.84951e+06 9.84946e+06 9.84936e+06 9.84922e+06 9.84903e+06 9.8488e+06 9.84854e+06 9.84826e+06 9.84794e+06 9.84761e+06
          9.84726e+06 9.84691e+06 9.84654e+06 9.84617e+06 9.84579e+06 9.84542e+06 9.84454e+06 9.84363e+06 9.84272e+06 9.84181e+06 9.8409e+06 9.83999e+06
          9.83908e+06 9.83818e+06 9.83728e+06 9.83638e+06 9.83548e+06 9.83458e+06 9.83369e+06 9.83279e+06 9.8319e+06 9.83101e+06 9.82472e+06 9.82542e+06
          9.82611e+06 9.82681e+06 9.82751e+06 9.8282e+06 9.8289e+06 9.8296e+06 9.8303e+06 9.831e+06 9.8317e+06 9.8324e+06 9.8331e+06 9.83379e+06
          9.83448e+06 9.83516e+06 9.83584e+06 9.83651e+06 9.83716e+06 9.8378e+06 9.83842e+06 9.83902e+06 9.83959e+06 9.84012e+06 9.84062e+06 9.84108e+06
          9.84149e+06 9.84186e+06 9.84216e+06 9.84242e+06 9.84261e+06 9.84275e+06 9.84283e+06 9.84284e+06 9.84281e+06 9.84273e+06 9.8426e+06 9.84244e+06
          9.84224e+06 9.84201e+06 9.84175e+06 9.84146e+06 9.84116e+06 9.84084e+06 9.8405e+06 9.84016e+06 9.8398e+06 9.83944e+06 9.83907e+06 9.83822e+06
          9.83733e+06 9.83644e+06 9.83555e+06 9.83466e+06 9.83376e+06 9.83287e+06 9.83198e+06 9.83109e+06 9.8302e+06 9.82931e+06 9.82842e+06 9.82753e+06
          9.82664e+06 9.82576e+06 9.82487e+06 9.81858e+06 9.81927e+06 9.81995e+06 9.82064e+06 9.82133e+06 9.82201e+06 9.8227e+06 9.82338e+06 9.82407e+06
          9.82476e+06 9.82544e+06 9.82612e+06 9.8268e+06 9.82747e+06 9.82814e+06 9.8288e+06 9.82945e+06 9.83009e+06 9.83072e+06 9.83133e+06 9.83193e+06
          9.8325e+06 9.83304e+06 9.83355e+06 9.83402e+06 9.83446e+06 9.83486e+06 9.8352e+06 9.8355e+06 9.83575e+06 9.83595e+06 9.8361e+06 9.8362e+06
          9.83622e+06 9.8362e+06 9.83613e+06 9.83603e+06 9.83588e+06 9.83571e+06 9.8355e+06 9.83526e+06 9.835e+06 9.83472e+06 9.83442e+06 9.8341e+06
          9.83378e+06 9.83344e+06 9.83309e+06 9.83274e+06 9.83191e+06 9.83104e+06 9.83017e+06 9.82929e+06 9.82841e+06 9.82754e+06 9.82666e+06 9.82578e+06
          9.8249e+06 9.82401e+06 9.82313e+06 9.82225e+06 9.82137e+06 9.82049e+06 9.81961e+06 9.81874e+06 9.81244e+06 9.81312e+06 9.81379e+06 9.81447e+06
          9.81514e+06 9.81582e+06 9.8165e+06 9.81717e+06 9.81784e+06 9.81851e+06 9.81918e+06 9.81984e+06 9.8205e+06 9.82116e+06 9.82181e+06 9.82245e+06
          9.82308e+06 9.8237e+06 9.8243e+06 9.82489e+06 9.82545e+06 9.826e+06 9.82652e+06 9.82701e+06 9.82746e+06 9.82788e+06 9.82826e+06 9.8286e+06
          9.82889e+06 9.82914e+06 9.82934e+06 9.8295e+06 9.82961e+06 9.82964e+06 9.82963e+06 9.82958e+06 9.82949e+06 9.82936e+06 9.8292e+06 9.82902e+06
          9.8288e+06 9.82856e+06 9.8283e+06 9.82802e+06 9.82772e+06 9.82741e+06 9.82708e+06 9.82675e+06 9.82641e+06 9.8256e+06 9.82475e+06 9.8239e+06
          9.82304e+06 9.82217e+06 9.82131e+06 9.82044e+06 9.81957e+06 9.8187e+06 9.81783e+06 9.81696e+06 9.81609e+06 9.81522e+06 9.81434e+06 9.81347e+06
          9.8126e+06 9.8063e+06 9.80697e+06 9.80764e+06 9.8083e+06 9.80896e+06 9.80963e+06 9.81029e+06 9.81095e+06 9.81161e+06 9.81227e+06 9.81292e+06
          9.81357e+06 9.81421e+06 9.81485e+06 9.81548e+06 9.8161e+06 9.81671e+06 9.81731e+06 9.81789e+06 9.81846e+06 9.819e+06 9.81953e+06 9.82003e+06
          9.8205e+06 9.82094e+06 9.82134e+06 9.82171e+06 9.82204e+06 9.82233e+06 9.82258e+06 9.82278e+06 9.82295e+06 9.82307e+06 9.8231e+06 9.8231e+06
          9.82306e+06 9.82298e+06 9.82288e+06 9.82273e+06 9.82256e+06 9.82236e+06 9.82214e+06 9.8219e+06 9.82163e+06 9.82135e+06 9.82106e+06 9.82074e+06
          9.82042e+06 9.82008e+06 9.81929e+06 9.81846e+06 9.81763e+06 9.81678e+06 9.81594e+06 9.81508e+06 9.81423e+06 9.81337e+06 9.81251e+06 9.81165e+06
          9.81079e+06 9.80992e+06 9.80906e+06 9.80819e+06 9.80733e+06 9.80646e+06 9.80016e+06 9.80082e+06 9.80148e+06 9.80213e+06 9.80279e+06 9.80344e+06
          9.80409e+06 9.80474e+06 9.80539e+06 9.80603e+06 9.80667e+06 9.8073e+06 9.80793e+06 9.80855e+06 9.80916e+06 9.80977e+06 9.81036e+06 9.81094e+06
          9.8115e+06 9.81205e+06 9.81258e+06 9.81308e+06 9.81356e+06 9.81402e+06 9.81444e+06 9.81484e+06 9.8152e+06 9.81552e+06 9.81581e+06 9.81606e+06
          9.81626e+06 9.81644e+06 9.81657e+06 9.8166e+06 9.81661e+06 9.81658e+06 9.81652e+06 9.81642e+06 9.81629e+06 9.81614e+06 9.81595e+06 9.81575e+06
          9.81552e+06 9.81527e+06 9.815e+06 9.81471e+06 9.81441e+06 9.8141e+06 9.81377e+06 9.813e+06 9.81219e+06 9.81137e+06 9.81054e+06 9.8097e+06
          9.80886e+06 9.80802e+06 9.80717e+06 9.80632e+06 9.80547e+06 9.80462e+06 9.80376e+06 9.8029e+06 9.80204e+06 9.80118e+06 9.80032e+06 9.79402e+06
          9.79467e+06 9.79532e+06 9.79596e+06 9.79661e+06 9.79725e+06 9.79789e+06 9.79853e+06 9.79916e+06 9.79979e+06 9.80042e+06 9.80104e+06 9.80166e+06
          9.80226e+06 9.80286e+06 9.80345e+06 9.80402e+06 9.80458e+06 9.80513e+06 9.80566e+06 9.80617e+06 9.80666e+06 9.80713e+06 9.80757e+06 9.80798e+06
          9.80837e+06 9.80872e+06 9.80904e+06 9.80932e+06 9.80957e+06 9.80978e+06 9.80996e+06 9.8101e+06 9.81014e+06 9.81016e+06 9.81013e+06 9.81008e+06
          9.80999e+06 9.80988e+06 9.80974e+06 9.80957e+06 9.80937e+06 9.80916e+06 9.80892e+06 9.80866e+06 9.80839e+06 9.8081e+06 9.80779e+06 9.80747e+06
          9.80672e+06 9.80592e+06 9.80511e+06 9.8043e+06 9.80348e+06 9.80265e+06 9.80182e+06 9.80098e+06 9.80014e+06 9.79929e+06 9.79844e+06 9.7976e+06
          9.79674e+06 9.79589e+06 9.79504e+06 9.79419e+06 9.78789e+06 9.78852e+06 9.78916e+06 9.7898e+06 9.79043e+06 9.79106e+06 9.7917e+06 9.79232e+06
          9.79294e+06 9.79356e+06 9.79418e+06 9.79478e+06 9.79539e+06 9.79598e+06 9.79656e+06 9.79714e+06 9.7977e+06 9.79824e+06 9.79878e+06 9.79929e+06
          9.79979e+06 9.80027e+06 9.80072e+06 9.80115e+06 9.80155e+06 9.80193e+06 9.80228e+06 9.80259e+06 9.80287e+06 9.80312e+06 9.80334e+06 9.80352e+06
          9.80367e+06 9.80372e+06 9.80373e+06 9.80372e+06 9.80367e+06 9.8036e+06 9.80349e+06 9.80336e+06 9.8032e+06 9.80302e+06 9.80282e+06 9.80259e+06
          9.80234e+06 9.80208e+06 9.8018e+06 9.8015e+06 9.80119e+06 9.80044e+06 9.79966e+06 9.79887e+06 9.79807e+06 9.79726e+06 9.79644e+06 9.79561e+06
          9.79478e+06 9.79395e+06 9.79312e+06 9.79228e+06 9.79143e+06 9.79059e+06 9.78974e+06 9.7889e+06 9.78805e+06 9.78175e+06 9.78238e+06 9.783e+06
          9.78363e+06 9.78426e+06 9.78488e+06 9.7855e+06 9.78612e+06 9.78673e+06 9.78734e+06 9.78794e+06 9.78854e+06 9.78912e+06 9.78971e+06 9.79028e+06
          9.79084e+06 9.79138e+06 9.79192e+06 9.79244e+06 9.79294e+06 9.79343e+06 9.79389e+06 9.79434e+06 9.79476e+06 9.79515e+06 9.79552e+06 9.79586e+06
          9.79617e+06 9.79646e+06 9.79671e+06 9.79693e+06 9.79712e+06 9.79727e+06 9.79732e+06 9.79734e+06 9.79734e+06 9.7973e+06 9.79723e+06 9.79714e+06
          9.79702e+06 9.79687e+06 9.7967e+06 9.7965e+06 9.79628e+06 9.79605e+06 9.79579e+06 9.79551e+06 9.79522e+06 9.79492e+06 9.79419e+06 9.79342e+06
          9.79263e+06 9.79184e+06 9.79104e+06 9.79023e+06 9.78942e+06 9.7886e+06 9.78777e+06 9.78694e+06 9.78611e+06 9.78527e+06 9.78444e+06 9.7836e+06
          9.78276e+06 9.78192e+06 9.77561e+06 9.77623e+06 9.77685e+06 9.77747e+06 9.77809e+06 9.7787e+06 9.77931e+06 9.77992e+06 9.78052e+06 9.78112e+06
          9.78171e+06 9.7823e+06 9.78287e+06 9.78344e+06 9.784e+06 9.78455e+06 9.78509e+06 9.78561e+06 9.78612e+06 9.78661e+06 9.78708e+06 9.78754e+06
          9.78797e+06 9.78839e+06 9.78878e+06 9.78914e+06 9.78948e+06 9.78979e+06 9.79007e+06 9.79032e+06 9.79055e+06 9.79074e+06 9.7909e+06 9.79096e+06
          9.79099e+06 9.79098e+06 9.79095e+06 9.79089e+06 9.79081e+06 9.79069e+06 9.79055e+06 9.79039e+06 9.7902e+06 9.79e+06 9.78976e+06 9.78952e+06
          9.78925e+06 9.78896e+06 9.78866e+06 9.78794e+06 9.78718e+06 9.78641e+06 9.78563e+06 9.78483e+06 9.78403e+06 9.78323e+06 9.78241e+06 9.78159e+06
          9.78077e+06 9.77994e+06 9.77912e+06 9.77828e+06 9.77745e+06 9.77662e+06 9.77578e+06 9.76947e+06 9.77008e+06 9.7707e+06 9.77131e+06 9.77192e+06
          9.77252e+06 9.77312e+06 9.77372e+06 9.77432e+06 9.7749e+06 9.77549e+06 9.77606e+06 9.77663e+06 9.77719e+06 9.77774e+06 9.77827e+06 9.7788e+06
          9.77931e+06 9.77981e+06 9.78029e+06 9.78076e+06 9.78121e+06 9.78163e+06 9.78204e+06 9.78242e+06 9.78278e+06 9.78312e+06 9.78343e+06 9.78372e+06
          9.78397e+06 9.7842e+06 9.7844e+06 9.78457e+06 9.78463e+06 9.78466e+06 9.78466e+06 9.78464e+06 9.78458e+06 9.7845e+06 9.7844e+06 9.78426e+06
          9.78411e+06 9.78393e+06 9.78373e+06 9.7835e+06 9.78326e+06 9.783e+06 9.78272e+06 9.78242e+06 9.78171e+06 9.78096e+06 9.7802e+06 9.77942e+06
          9.77864e+06 9.77784e+06 9.77704e+06 9.77623e+06 9.77542e+06 9.7746e+06 9.77378e+06 9.77296e+06 9.77213e+06 9.77131e+06 9.77048e+06 9.76965e+06
          9.76334e+06 9.76394e+06 9.76454e+06 9.76515e+06 9.76575e+06 9.76635e+06 9.76694e+06 9.76753e+06 9.76812e+06 9.7687e+06 9.76927e+06 9.76984e+06
          9.77039e+06 9.77094e+06 9.77148e+06 9.77201e+06 9.77253e+06 9.77303e+06 9.77352e+06 9.774e+06 9.77445e+06 9.77489e+06 9.77532e+06 9.77572e+06
          9.7761e+06 9.77645e+06 9.77679e+06 9.7771e+06 9.77738e+06 9.77764e+06 9.77788e+06 9.77808e+06 9.77826e+06 9.77832e+06 9.77836e+06 9.77836e+06
          9.77835e+06 9.7783e+06 9.77823e+06 9.77813e+06 9.778e+06 9.77785e+06 9.77768e+06 9.77748e+06 9.77726e+06 9.77703e+06 9.77677e+06 9.77649e+06
          9.7762e+06 9.77549e+06 9.77475e+06 9.77399e+06 9.77322e+06 9.77244e+06 9.77166e+06 9.77086e+06 9.77006e+06 9.76925e+06 9.76844e+06 9.76763e+06
          9.76681e+06 9.76599e+06 9.76516e+06 9.76434e+06 9.76351e+06 9.7572e+06 9.7578e+06 9.7584e+06 9.75899e+06 9.75958e+06 9.76018e+06 9.76076e+06
          9.76134e+06 9.76192e+06 9.7625e+06 9.76306e+06 9.76362e+06 9.76417e+06 9.76471e+06 9.76524e+06 9.76576e+06 9.76627e+06 9.76676e+06 9.76725e+06
          9.76771e+06 9.76816e+06 9.7686e+06 9.76902e+06 9.76941e+06 9.76979e+06 9.77015e+06 9.77048e+06 9.77079e+06 9.77108e+06 9.77135e+06 9.77158e+06
          9.7718e+06 9.77198e+06 9.77204e+06 9.77208e+06 9.7721e+06 9.77208e+06 9.77204e+06 9.77198e+06 9.77188e+06 9.77176e+06 9.77162e+06 9.77145e+06
          9.77126e+06 9.77104e+06 9.77081e+06 9.77056e+06 9.77028e+06 9.76999e+06 9.76929e+06 9.76855e+06 9.7678e+06 9.76704e+06 9.76626e+06 9.76548e+06
          9.76469e+06 9.76389e+06 9.76309e+06 9.76228e+06 9.76147e+06 9.76066e+06 9.75984e+06 9.75902e+06 9.7582e+06 9.75738e+06 9.75106e+06 9.75166e+06
          9.75225e+06 9.75284e+06 9.75342e+06 9.75401e+06 9.75459e+06 9.75516e+06 9.75574e+06 9.7563e+06 9.75686e+06 9.75741e+06 9.75795e+06 9.75848e+06
          9.75901e+06 9.75952e+06 9.76002e+06 9.76051e+06 9.76099e+06 9.76145e+06 9.76189e+06 9.76232e+06 9.76274e+06 9.76313e+06 9.76351e+06 9.76386e+06
          9.7642e+06 9.76451e+06 9.7648e+06 9.76507e+06 9.76532e+06 9.76554e+06 9.76573e+06 9.7658e+06 9.76584e+06 9.76586e+06 9.76585e+06 9.76581e+06
          9.76575e+06 9.76566e+06 9.76555e+06 9.76541e+06 9.76524e+06 9.76506e+06 9.76485e+06 9.76462e+06 9.76436e+06 9.76409e+06 9.7638e+06 9.76311e+06
          9.76237e+06 9.76162e+06 9.76086e+06 9.76009e+06 9.75931e+06 9.75852e+06 9.75773e+06 9.75693e+06 9.75613e+06 9.75532e+06 9.75451e+06 9.7537e+06
          9.75288e+06 9.75206e+06 9.75124e+06 9.74493e+06 9.74551e+06 9.7461e+06 9.74668e+06 9.74727e+06 9.74784e+06 9.74842e+06 9.74899e+06 9.74955e+06
          9.75011e+06 9.75066e+06 9.75121e+06 9.75174e+06 9.75227e+06 9.75279e+06 9.75329e+06 9.75379e+06 9.75427e+06 9.75474e+06 9.7552e+06 9.75564e+06
          9.75606e+06 9.75647e+06 9.75687e+06 9.75724e+06 9.7576e+06 9.75793e+06 9.75825e+06 9.75855e+06 9.75882e+06 9.75907e+06 9.7593e+06 9.7595e+06
          9.75957e+06 9.75962e+06 9.75964e+06 9.75964e+06 9.75961e+06 9.75955e+06 9.75947e+06 9.75936e+06 9.75922e+06 9.75906e+06 9.75888e+06 9.75867e+06
          9.75844e+06 9.75819e+06 9.75792e+06 9.75763e+06 9.75694e+06 9.7562e+06 9.75546e+06 9.7547e+06 9.75393e+06 9.75315e+06 9.75236e+06 9.75157e+06
          9.75078e+06 9.74998e+06 9.74917e+06 9.74836e+06 9.74755e+06 9.74674e+06 9.74592e+06 9.74511e+06 9.73879e+06 9.73938e+06 9.73996e+06 9.74054e+06
          9.74111e+06 9.74168e+06 9.74225e+06 9.74282e+06 9.74338e+06 9.74393e+06 9.74447e+06 9.74501e+06 9.74554e+06 9.74606e+06 9.74658e+06 9.74708e+06
          9.74756e+06 9.74804e+06 9.74851e+06 9.74896e+06 9.7494e+06 9.74982e+06 9.75023e+06 9.75062e+06 9.75099e+06 9.75135e+06 9.75169e+06 9.75201e+06
          9.75231e+06 9.75259e+06 9.75285e+06 9.75309e+06 9.7533e+06 9.75338e+06 9.75343e+06 9.75346e+06 9.75346e+06 9.75343e+06 9.75338e+06 9.7533e+06
          9.75319e+06 9.75306e+06 9.7529e+06 9.75272e+06 9.75252e+06 9.75229e+06 9.75204e+06 9.75177e+06 9.75148e+06 9.75078e+06 9.75005e+06 9.7493e+06
          9.74854e+06 9.74777e+06 9.747e+06 9.74621e+06 9.74542e+06 9.74463e+06 9.74383e+06 9.74303e+06 9.74222e+06 9.74141e+06 9.7406e+06 9.73979e+06
          9.73898e+06 9.73266e+06 9.73324e+06 9.73381e+06 9.73439e+06 9.73496e+06 9.73553e+06 9.73609e+06 9.73665e+06 9.73721e+06 9.73775e+06 9.73829e+06
          9.73883e+06 9.73935e+06 9.73987e+06 9.74037e+06 9.74087e+06 9.74136e+06 9.74183e+06 9.74229e+06 9.74274e+06 9.74317e+06 9.74359e+06 9.744e+06
          9.74439e+06 9.74476e+06 9.74512e+06 9.74547e+06 9.74579e+06 9.7461e+06 9.74639e+06 9.74666e+06 9.7469e+06 9.74712e+06 9.74721e+06 9.74727e+06
          9.7473e+06 9.7473e+06 9.74728e+06 9.74723e+06 9.74716e+06 9.74706e+06 9.74693e+06 9.74677e+06 9.74659e+06 9.74638e+06 9.74616e+06 9.74591e+06
          9.74563e+06 9.74534e+06 9.74464e+06 9.74391e+06 9.74316e+06 9.74239e+06 9.74162e+06 9.74085e+06 9.74006e+06 9.73928e+06 9.73848e+06 9.73768e+06
          9.73688e+06 9.73608e+06 9.73527e+06 9.73446e+06 9.73366e+06 9.73284e+06 9.72652e+06 9.7271e+06 9.72767e+06 9.72824e+06 9.72881e+06 9.72938e+06
          9.72994e+06 9.73049e+06 9.73104e+06 9.73158e+06 9.73212e+06 9.73265e+06 9.73317e+06 9.73368e+06 9.73418e+06 9.73468e+06 9.73516e+06 9.73563e+06
          9.73608e+06 9.73653e+06 9.73696e+06 9.73738e+06 9.73778e+06 9.73818e+06 9.73855e+06 9.73891e+06 9.73926e+06 9.73959e+06 9.7399e+06 9.7402e+06
          9.74048e+06 9.74074e+06 9.74098e+06 9.74106e+06 9.74113e+06 9.74117e+06 9.74118e+06 9.74116e+06 9.74112e+06 9.74104e+06 9.74094e+06 9.74082e+06
          9.74066e+06 9.74048e+06 9.74028e+06 9.74005e+06 9.7398e+06 9.73952e+06 9.73923e+06 9.73852e+06 9.73778e+06 9.73702e+06 9.73626e+06 9.73548e+06
          9.73471e+06 9.73392e+06 9.73313e+06 9.73234e+06 9.73154e+06 9.73074e+06 9.72994e+06 9.72914e+06 9.72833e+06 9.72752e+06 9.72671e+06 9.72039e+06
          9.72096e+06 9.72154e+06 9.7221e+06 9.72267e+06 9.72323e+06 9.72379e+06 9.72434e+06 9.72488e+06 9.72542e+06 9.72596e+06 9.72648e+06 9.727e+06
          9.7275e+06 9.728e+06 9.72849e+06 9.72897e+06 9.72944e+06 9.72989e+06 9.73033e+06 9.73076e+06 9.73118e+06 9.73159e+06 9.73198e+06 9.73235e+06
          9.73272e+06 9.73307e+06 9.7334e+06 9.73372e+06 9.73403e+06 9.73432e+06 9.7346e+06 9.73485e+06 9.73494e+06 9.73502e+06 9.73506e+06 9.73508e+06
          9.73507e+06 9.73502e+06 9.73496e+06 9.73486e+06 9.73473e+06 9.73458e+06 9.7344e+06 9.73419e+06 9.73396e+06 9.73371e+06 9.73343e+06 9.73313e+06
          9.73241e+06 9.73166e+06 9.7309e+06 9.73013e+06 9.72935e+06 9.72857e+06 9.72778e+06 9.727e+06 9.7262e+06 9.72541e+06 9.72461e+06 9.72381e+06
          9.723e+06 9.7222e+06 9.72139e+06 9.72058e+06 9.71426e+06 9.71483e+06 9.7154e+06 9.71597e+06 9.71653e+06 9.71709e+06 9.71764e+06 9.71819e+06
          9.71873e+06 9.71927e+06 9.7198e+06 9.72032e+06 9.72083e+06 9.72134e+06 9.72183e+06 9.72232e+06 9.72279e+06 9.72326e+06 9.72371e+06 9.72415e+06
          9.72458e+06 9.725e+06 9.7254e+06 9.72579e+06 9.72617e+06 9.72653e+06 9.72689e+06 9.72723e+06 9.72756e+06 9.72788e+06 9.72818e+06 9.72847e+06
          9.72875e+06 9.72885e+06 9.72893e+06 9.72898e+06 9.72901e+06 9.729e+06 9.72896e+06 9.7289e+06 9.7288e+06 9.72868e+06 9.72853e+06 9.72834e+06
          9.72814e+06 9.7279e+06 9.72764e+06 9.72736e+06 9.72705e+06 9.72632e+06 9.72555e+06 9.72478e+06 9.724e+06 9.72322e+06 9.72244e+06 9.72165e+06
          9.72086e+06 9.72007e+06 9.71927e+06 9.71848e+06 9.71768e+06 9.71687e+06 9.71607e+06 9.71526e+06 9.71445e+06 9.70813e+06 9.7087e+06 9.70927e+06
          9.70983e+06 9.7104e+06 9.71095e+06 9.7115e+06 9.71205e+06 9.71259e+06 9.71312e+06 9.71365e+06 9.71417e+06 9.71468e+06 9.71518e+06 9.71567e+06
          9.71616e+06 9.71663e+06 9.71709e+06 9.71754e+06 9.71798e+06 9.71841e+06 9.71882e+06 9.71923e+06 9.71962e+06 9.72e+06 9.72036e+06 9.72072e+06
          9.72107e+06 9.7214e+06 9.72173e+06 9.72205e+06 9.72237e+06 9.72266e+06 9.72278e+06 9.72287e+06 9.72294e+06 9.72297e+06 9.72296e+06 9.72293e+06
          9.72287e+06 9.72278e+06 9.72265e+06 9.7225e+06 9.72232e+06 9.72211e+06 9.72187e+06 9.7216e+06 9.7213e+06 9.72099e+06 9.72023e+06 9.71945e+06
          9.71866e+06 9.71788e+06 9.71709e+06 9.71631e+06 9.71552e+06 9.71473e+06 9.71394e+06 9.71314e+06 9.71235e+06 9.71155e+06 9.71074e+06 9.70994e+06
          9.70913e+06 9.70832e+06 9.702e+06 9.70257e+06 9.70314e+06 9.7037e+06 9.70426e+06 9.70482e+06 9.70537e+06 9.70591e+06 9.70645e+06 9.70698e+06
          9.7075e+06 9.70802e+06 9.70853e+06 9.70903e+06 9.70952e+06 9.71e+06 9.71047e+06 9.71093e+06 9.71138e+06 9.71182e+06 9.71225e+06 9.71266e+06
          9.71307e+06 9.71346e+06 9.71384e+06 9.71421e+06 9.71456e+06 9.71491e+06 9.71526e+06 9.71559e+06 9.71593e+06 9.71627e+06 9.7166e+06 9.71674e+06
          9.71685e+06 9.71692e+06 9.71696e+06 9.71696e+06 9.71693e+06 9.71687e+06 9.71678e+06 9.71665e+06 9.7165e+06 9.71632e+06 9.71611e+06 9.71586e+06
          9.71558e+06 9.71527e+06 9.71494e+06 9.71415e+06 9.71334e+06 9.71255e+06 9.71176e+06 9.71097e+06 9.71018e+06 9.70939e+06 9.7086e+06 9.70781e+06
          9.70702e+06 9.70622e+06 9.70542e+06 9.70462e+06 9.70381e+06 9.703e+06 9.70219e+06 9.69587e+06 9.69645e+06 9.69702e+06 9.69758e+06 9.69814e+06
          9.69869e+06 9.69924e+06 9.69978e+06 9.70032e+06 9.70085e+06 9.70137e+06 9.70188e+06 9.70239e+06 9.70289e+06 9.70338e+06 9.70386e+06 9.70433e+06
          9.70479e+06 9.70524e+06 9.70567e+06 9.7061e+06 9.70651e+06 9.70692e+06 9.70731e+06 9.70769e+06 9.70806e+06 9.70842e+06 9.70877e+06 9.70912e+06
          9.70946e+06 9.7098e+06 9.71016e+06 9.71054e+06 9.71074e+06 9.71086e+06 9.71094e+06 9.71098e+06 9.71099e+06 9.71096e+06 9.7109e+06 9.71081e+06
          9.71069e+06 9.71053e+06 9.71035e+06 9.71014e+06 9.70989e+06 9.70961e+06 9.70928e+06 9.70888e+06 9.70805e+06 9.70723e+06 9.70643e+06 9.70563e+06