<?xml version="1.0"?>
<VTKFile type="UnstructuredGrid" version="0.1" byte_order="LittleEndian">
  <UnstructuredGrid>
    <Piece NumberOfCells="256" NumberOfPoints="289">
      <PointData Scalars="pressure_liquid">
        <DataArray type="Float32" Name="pressure_liquid" NumberOfComponents="1" format="ascii">
          9.90082e+06 9.88504e+06 9.8799e+06 9.86949e+06 9.87594e+06 9.86204e+06 9.87019e+06 9.85696e+06 9.86647e+06 9.85357e+06 9.86413e+06 9.85142e+06
          9.86281e+06 9.85021e+06 9.86201e+06 9.84948e+06 9.86102e+06 9.84895e+06 9.86115e+06 9.84917e+06 9.86222e+06 9.84983e+06 9.86372e+06 9.85107e+06
          9.86618e+06 9.85331e+06 9.86999e+06 9.85677e+06 9.87581e+06 9.86192e+06 9.88497e+06 9.86942e+06 9.9008e+06 9.87988e+06 9.85753e+06 9.85096e+06
          9.84579e+06 9.84202e+06 9.83943e+06 9.83777e+06 9.83686e+06 9.83628e+06 9.83598e+06 9.83617e+06 9.83664e+06 9.83752e+06 9.83922e+06 9.84186e+06
          9.84568e+06 9.8509e+06 9.85751e+06 9.8346e+06 9.83105e+06 9.82812e+06 9.82592e+06 9.82437e+06 9.82339e+06 9.82288e+06 9.82253e+06 9.82239e+06
          9.82249e+06 9.82275e+06 9.82322e+06 9.82421e+06 9.82578e+06 9.82803e+06 9.83099e+06 9.83458e+06 9.81143e+06 9.81052e+06 9.80974e+06 9.80915e+06
          9.80876e+06 9.80857e+06 9.8085e+06 9.80843e+06 9.80843e+06 9.80843e+06 9.80843e+06 9.80848e+06 9.80864e+06 9.80904e+06 9.80966e+06 9.81047e+06
          9.81142e+06 9.78822e+06 9.78984e+06 9.79118e+06 9.79219e+06 9.79295e+06 9.79366e+06 9.79403e+06 9.79427e+06 9.79438e+06 9.79428e+06 9.79399e+06
          9.79356e+06 9.79285e+06 9.7921e+06 9.79111e+06 9.78981e+06 9.7882e+06 9.76512e+06 9.76947e+06 9.77293e+06 9.77549e+06 9.77733e+06 9.77877e+06
          9.77969e+06 9.78026e+06 9.78048e+06 9.78028e+06 9.77967e+06 9.7787e+06 9.77725e+06 9.77542e+06 9.77288e+06 9.76944e+06 9.76512e+06 9.74243e+06
          9.74999e+06 9.75559e+06 9.75952e+06 9.76245e+06 9.76442e+06 9.76578e+06 9.76664e+06 9.76694e+06 9.76666e+06 9.76579e+06 9.7644e+06 9.76242e+06
          9.75947e+06 9.75557e+06 9.74999e+06 9.74244e+06 9.72106e+06 9.73246e+06 9.73995e+06 9.74498e+06 9.74843e+06 9.75083e+06 9.7525e+06 9.75355e+06
          9.75392e+06 9.75358e+06 9.75253e+06 9.75083e+06 9.74841e+06 9.74497e+06 9.73996e+06 9.73251e+06 9.72113e+06 9.69746e+06 9.71003e+06 9.7187e+06
          9.7249e+06 9.72939e+06 9.73267e+06 9.73499e+06 9.73643e+06 9.73693e+06 9.73646e+06 9.73502e+06 9.73267e+06 9.72936e+06 9.72486e+06 9.71868e+06
          9.71004e+06 9.69749e+06 9.67103e+06 9.68268e+06 9.69208e+06 9.69948e+06 9.7052e+06 9.70951e+06 9.71255e+06 9.71438e+06 9.715e+06 9.71438e+06
          9.71252e+06 9.70944e+06 9.7051e+06 9.69937e+06 9.69199e+06 9.68264e+06 9.67106e+06 9.64616e+06 9.65756e+06 9.66752e+06 9.67583e+06 9.68251e+06
          9.68765e+06 9.69132e+06 9.69353e+06 9.69426e+06 9.69349e+06 9.69123e+06 9.68751e+06 9.68234e+06 9.67566e+06 9.66738e+06 9.6575e+06 9.64618e+06
          9.62188e+06 9.63393e+06 9.64473e+06 9.65395e+06 9.66149e+06 9.66736e+06 9.67159e+06 9.67415e+06 9.67497e+06 9.67408e+06 9.67146e+06 9.66718e+06
          9.66128e+06 9.65374e+06 9.64457e+06 9.63386e+06 9.62192e+06 9.5981e+06 9.61162e+06 9.62369e+06 9.63396e+06 9.64235e+06 9.6489e+06 9.65361e+06
          9.65647e+06 9.65739e+06 9.65639e+06 9.65346e+06 9.64869e+06 9.64212e+06 9.63375e+06 9.62354e+06 9.61158e+06 9.59816e+06 9.57488e+06 9.59091e+06
          9.60472e+06 9.61615e+06 9.62535e+06 9.63248e+06 9.6376e+06 9.64069e+06 9.64169e+06 9.64061e+06 9.63745e+06 9.63229e+06 9.62515e+06 9.61598e+06
          9.60462e+06 9.59092e+06 9.57497e+06 9.55248e+06 9.57266e+06 9.58851e+06 9.60098e+06 9.61079e+06 9.61831e+06 9.62368e+06 9.62692e+06 9.62797e+06
          9.62685e+06 9.62356e+06 9.61815e+06 9.61063e+06 9.60086e+06 9.58847e+06 9.57273e+06 9.55262e+06 9.5313e+06 9.5588e+06 9.57583e+06 9.58856e+06
          9.59847e+06 9.60604e+06 9.61144e+06 9.61469e+06 9.61574e+06 9.61462e+06 9.61132e+06 9.6059e+06 9.59834e+06 9.58848e+06 9.57583e+06 9.55891e+06
          9.53141e+06
        </DataArray>
        <DataArray type="Float32" Name="pressure_gas" NumberOfComponents="1" format="ascii">
          9.91082e+06 9.89504e+06 9.8899e+06 9.87949e+06 9.88594e+06 9.87204e+06 9.88019e+06 9.86696e+06 9.87647e+06 9.86357e+06 9.87413e+06 9.86142e+06
          9.87306e+06 9.86054e+06 9.87334e+06 9.86077e+06 9.87265e+06 9.86045e+06 9.87282e+06 9.86061e+06 9.87251e+06 9.86023e+06 9.87372e+06 9.86107e+06
          9.87618e+06 9.86331e+06 9.87999e+06 9.86677e+06 9.88581e+06 9.87192e+06 9.89497e+06 9.87942e+06 9.9108e+06 9.88988e+06 9.86753e+06 9.86096e+06
          9.85579e+06 9.85202e+06 9.84943e+06 9.84777e+06 9.84725e+06 9.84754e+06 9.84743e+06 9.8475e+06 9.8471e+06 9.84752e+06 9.84922e+06 9.85186e+06
          9.85568e+06 9.8609e+06 9.86751e+06 9.8446e+06 9.84105e+06 9.83812e+06 9.83592e+06 9.83437e+06 9.83339e+06 9.83334e+06 9.83376e+06 9.8338e+06
          9.83377e+06 9.83328e+06 9.83322e+06 9.83421e+06 9.83578e+06 9.83803e+06 9.84099e+06 9.84458e+06 9.82143e+06 9.82052e+06 9.81974e+06 9.81915e+06
          9.81876e+06 9.81857e+06 9.81903e+06 9.81964e+06 9.81981e+06 9.81968e+06 9.81902e+06 9.81853e+06 9.81864e+06 9.81904e+06 9.81966e+06 9.82047e+06
          9.82142e+06 9.79822e+06 9.79984e+06 9.80118e+06 9.80219e+06 9.80295e+06 9.80386e+06 9.80464e+06 9.80547e+06 9.80574e+06 9.80551e+06 9.80465e+06
          9.8038e+06 9.80285e+06 9.8021e+06 9.80111e+06 9.79981e+06 9.7982e+06 9.77512e+06 9.77947e+06 9.78293e+06 9.78549e+06 9.78733e+06 9.78908e+06
          9.79038e+06 9.79146e+06 9.79182e+06 9.79149e+06 9.7904e+06 9.78905e+06 9.78725e+06 9.78542e+06 9.78288e+06 9.77944e+06 9.77512e+06 9.75243e+06
          9.75999e+06 9.76559e+06 9.76952e+06 9.77266e+06 9.77485e+06 9.77656e+06 9.77786e+06 9.7783e+06 9.77788e+06 9.7766e+06 9.77486e+06 9.77264e+06
          9.76947e+06 9.76557e+06 9.75999e+06 9.75244e+06 9.7312e+06 9.74272e+06 9.75034e+06 9.75552e+06 9.75918e+06 9.76189e+06 9.764e+06 9.76551e+06
          9.76607e+06 9.76555e+06 9.76405e+06 9.76193e+06 9.75919e+06 9.75553e+06 9.75037e+06 9.74278e+06 9.7313e+06 9.70773e+06 9.72038e+06 9.72919e+06
          9.73556e+06 9.7403e+06 9.74394e+06 9.74673e+06 9.74864e+06 9.74933e+06 9.74868e+06 9.74678e+06 9.74397e+06 9.7403e+06 9.73554e+06 9.72918e+06
          9.7204e+06 9.70777e+06 9.68138e+06 9.69311e+06 9.70264e+06 9.71023e+06 9.71621e+06 9.72086e+06 9.72434e+06 9.72659e+06 9.72737e+06 9.72658e+06
          9.72432e+06 9.72082e+06 9.71613e+06 9.71014e+06 9.70257e+06 9.69308e+06 9.68142e+06 9.6566e+06 9.66808e+06 9.67818e+06 9.68669e+06 9.69363e+06
          9.6991e+06 9.70316e+06 9.70573e+06 9.70661e+06 9.70569e+06 9.70308e+06 9.69899e+06 9.69349e+06 9.68654e+06 9.67807e+06 9.66803e+06 9.65663e+06
          9.63243e+06 9.64456e+06 9.65552e+06 9.66494e+06 9.67273e+06 9.67891e+06 9.68348e+06 9.68634e+06 9.6873e+06 9.68627e+06 9.68336e+06 9.67876e+06
          9.67255e+06 9.66476e+06 9.65538e+06 9.64451e+06 9.63248e+06 9.60877e+06 9.62239e+06 9.63462e+06 9.6451e+06 9.65372e+06 9.66054e+06 9.66555e+06
          9.66865e+06 9.6697e+06 9.66858e+06 9.66542e+06 9.66037e+06 9.65353e+06 9.64492e+06 9.63451e+06 9.62237e+06 9.60884e+06 9.5857e+06 9.60185e+06
          9.61584e+06 9.62747e+06 9.63689e+06 9.64426e+06 9.64961e+06 9.6529e+06 9.65401e+06 9.65283e+06 9.64949e+06 9.6441e+06 9.63672e+06 9.62733e+06
          9.61577e+06 9.60189e+06 9.58581e+06 9.56366e+06 9.58401e+06 9.60009e+06 9.61281e+06 9.62287e+06 9.63064e+06 9.63624e+06 9.63967e+06 9.64083e+06
          9.63962e+06 9.63616e+06 9.63053e+06 9.62277e+06 9.61274e+06 9.6001e+06 9.58411e+06 9.56381e+06 9.54417e+06 9.57286e+06 9.59109e+06 9.60471e+06
          9.61531e+06 9.62344e+06 9.62927e+06 9.63284e+06 9.63406e+06 9.63284e+06 9.62929e+06 9.62348e+06 9.61538e+06 9.60482e+06 9.59124e+06 9.57304e+06
          9.5443e+06
        </DataArray>
        <DataArray type="Float32" Name="density_liquid" NumberOfComponents="1" format="ascii">
          996.521 996.513 996.526 996.517 996.51 996.511 996.506 996.505 996.488 996.481 996.342 996.292
          996.197 995.812 993.446 990.614 947.87 968.703 925.103 964.53 987.803 990.357 995.337 995.472
          996.388 996.388 996.499 996.498 996.509 996.511 996.513 996.517 996.521 996.526 996.539 996.522
          996.512 996.503 996.466 996.22 995.526 990.316 976.733 976.38 991.282 995.438 996.363 996.493
          996.511 996.522 996.539 996.553 996.524 996.51 996.495 996.438 996.165 995.147 990.194 980.796
          981.208 991.388 995.36 996.302 996.48 996.508 996.525 996.553 996.567 996.52 996.5 996.475
          996.368 996.344 994.552 989.892 983.153 983.475 990.926 995.459 996.15 996.441 996.496 996.52
          996.567 996.571 996.503 996.471 996.41 996.275 996.048 993.8 989.632 984.823 985.035 990.315
          994.575 995.818 996.286 996.44 996.496 996.569 996.545 996.456 996.391 996.288 996.135 995.216
          992.897 989.476 986.102 986.195 989.726 993.332 995.335 995.935 996.25 996.401 996.526 996.449
          996.329 996.204 996 995.469 994.109 992.008 989.432 987.153 987.135 989.298 991.996 994.123
          995.256 995.78 996.112 996.332 996.712 996.479 996.066 995.464 994.546 993.211 991.476 989.622
          988.106 988.003 989.26 991.116 992.899 994.277 995.26 995.936 996.33 996.692 996.26 995.788
          995.144 994.22 992.994 991.538 990.08 988.988 988.822 989.619 991.001 992.502 993.808 994.809
          995.576 996.279 996.599 996 995.47 994.801 993.936 992.858 991.662 990.516 989.66 989.446
          989.92 990.907 992.109 993.268 994.266 995.124 996.091 996.489 995.738 995.164 994.505 993.732
          992.821 991.854 990.939 990.232 989.964 990.198 990.853 991.754 992.736 993.684 994.605 995.852
          996.367 995.512 994.91 994.305 993.641 992.896 992.124 991.374 990.774 990.458 990.503 990.878
          991.496 992.274 993.11 994.082 995.567 996.273 995.355 994.764 994.232 993.685 993.082 992.461
          991.843 991.304 990.962 990.87 991.022 991.392 991.944 992.65 993.615 995.293 996.226 995.296
          994.741 994.282 993.831 993.338 992.821 992.306 991.816 991.456 991.276 991.277 991.458 991.816
          992.382 993.288 995.081 996.281 995.349 994.816 994.395 993.994 993.569 993.113 992.652 992.213
          991.851 991.627 991.545 991.615 991.857 992.333 993.218 995.084 996.625 995.441 994.852 994.423
          994.031 993.63 993.203 992.773 992.358 992.008 991.775 991.666 991.695 991.896 992.36 993.357
          995.754
        </DataArray>
        <DataArray type="Float32" Name="density_gas" NumberOfComponents="1" format="ascii">
          0.0510072 0.0510115 0.0509139 0.050943 0.0510116 0.0509605 0.0510176 0.0509841 0.0511271 0.0511384 0.0520785 0.0523745
          108.969 108.514 106.791 104.672 86.678 93.7097 80.4833 92.1159 103.015 104.499 0.0590689 0.0580586
          0.0517815 0.0517471 0.0510649 0.0510333 0.0510139 0.0509631 0.0510116 0.050943 0.0510072 0.0509139 0.0507672 0.0508589
          0.0509097 0.0509602 0.0511916 0.0528052 108.136 104.342 96.99 96.8289 104.982 0.0582673 0.0518688 0.0510234
          0.0509133 0.0508587 0.050767 0.0506079 0.050786 0.0508755 0.0509635 0.0513392 10.6198 107.679 104.121 98.7952
          99.002 104.912 19.4741 0.052232 0.0510651 0.0508829 0.0507855 0.0506077 0.0504493 0.0507576 0.0508837 0.0510484
          0.0517518 76.7841 107.063 103.78 99.8663 100.035 104.449 107.776 0.0698511 0.0512755 0.0509118 0.0507595
          0.0504493 0.0577702 0.107222 0.465326 3.04906 21.4402 108.11 106.332 103.467 100.626 100.741 103.9
          106.92 25.4181 3.5934 0.532643 0.115352 0.0587169 0.821619 2.45451 7.9609 25.4244 78.5684 107.266
          105.523 103.224 101.201 101.252 103.373 105.826 92.1228 30.2115 9.47514 2.91134 0.966161 9.11993
          17.2126 36.053 71.8099 107.299 106.256 104.749 103.057 101.673 101.658 102.958 104.723 106.244
          78.5331 40.1503 19.3639 10.3102 107.897 107.819 107.557 107.114 106.429 105.454 104.255 103.052
          102.118 102.051 102.805 103.989 105.2 106.182 106.892 107.369 107.574 107.631 107.4 107.102
          106.643 105.979 105.109 104.118 103.173 102.486 102.378 102.858 103.726 104.717 105.613 106.316
          106.834 107.281 107.268 106.894 106.56 106.11 105.508 104.771 103.971 103.226 102.686 102.541
          102.82 103.424 104.19 104.955 105.617 106.179 106.845 106.91 106.413 106.052 105.634 105.118
          104.517 103.882 103.289 102.838 102.657 102.78 103.162 103.714 104.325 104.92 105.514 106.385
          106.551 105.979 105.617 105.252 104.833 104.36 103.862 103.383 102.989 102.774 102.773 102.97
          103.322 103.768 104.268 104.867 105.896 106.222 105.617 105.284 104.988 104.665 104.302 103.91
          103.516 103.163 102.922 102.827 102.877 103.055 103.338 103.721 104.286 105.423 105.938 105.351
          105.068 104.841 104.596 104.316 104.001 103.668 103.346 103.091 102.935 102.88 102.925 103.069
          103.336 103.836 105.011 105.748 105.206 104.959 104.772 104.573 104.339 104.07 103.777 103.479
          103.221 103.033 102.92 102.886 102.945 103.138 103.6 104.781 105.83 105.163 104.893 104.71
          104.524 104.309 104.064 103.793 103.511 103.258 103.064 102.93 102.865 102.89 103.066 103.584
          105.114
        </DataArray>
        <DataArray type="Float32" Name="saturation_liquid" NumberOfComponents="1" format="ascii">
          1 1 1 1 1 1 1 1 1 1 1 1
          0.961674 0.949847 0.822899 0.827052 0.792389 0.804274 0.787807 0.812049 0.955645 0.939365 1 1
          1 1 1 1 1 1 1 1 1 1 1 1
          1 1 1 1 0.94074 0.831349 0.810736 0.82299 0.930019 1 1 1
          1 1 1 1 1 1 1 1 1 0.931148 0.834376 0.814972
          0.829124 0.921546 1 1 1 1 1 1 1 1 1 1
          1 1 0.920914 0.836121 0.818062 0.832705 0.912782 0.991387 1 1 1 1
          1 1 1 1 1 1 0.969096 0.91053 0.837359 0.82059 0.835255 0.90386
          0.963434 1 1 1 1 1 1 1 1 1 1 0.952082
          0.900306 0.838189 0.822617 0.836951 0.89504 0.947486 1 1 1 1 1 1
          1 1 1 0.968649 0.935567 0.888438 0.835685 0.820871 0.83502 0.884415 0.931477 0.965461
          1 1 1 1 0.978263 0.960575 0.941398 0.920407 0.892302 0.853685 0.805513 0.758904
          0.742625 0.758724 0.80287 0.850149 0.88917 0.91801 0.939419 0.958497 0.974286 0.958954 0.947273 0.927625
          0.903815 0.87198 0.830084 0.780889 0.735974 0.719963 0.736228 0.778812 0.826692 0.86861 0.901053 0.925373
          0.945196 0.956784 0.946169 0.935973 0.916531 0.892099 0.860296 0.820521 0.776092 0.73691 0.72228 0.737259
          0.774417 0.817445 0.856973 0.889172 0.914104 0.933875 0.944388 0.933967 0.923065 0.90303 0.878136 0.847105
          0.810336 0.771196 0.737679 0.724368 0.737918 0.769665 0.807436 0.843793 0.875024 0.900375 0.920854 0.932284
          0.920067 0.908052 0.887257 0.862367 0.832936 0.799903 0.766332 0.738322 0.726348 0.738322 0.76477 0.79704
          0.829549 0.859019 0.884322 0.905629 0.918407 0.903543 0.89032 0.869126 0.845024 0.818063 0.789387 0.761496
          0.738701 0.728165 0.738442 0.759801 0.78647 0.814542 0.841417 0.865845 0.887606 0.901832 0.882682 0.868389
          0.847369 0.824813 0.800957 0.776854 0.75435 0.736207 0.72706 0.735654 0.752402 0.773728 0.797154 0.820816
          0.843627 0.865294 0.88085 0.840665 0.821582 0.796418 0.772007 0.748455 0.726434 0.707115 0.691979 0.683636
          0.690578 0.703925 0.721768 0.742855 0.766124 0.790945 0.817208 0.838191 0.682978 0.604994 0.543522 0.506756
          0.482018 0.464176 0.451395 0.442838 0.438577 0.441087 0.44783 0.459 0.475584 0.499684 0.536847 0.600259
          0.681742
        </DataArray>
        <DataArray type="Float32" Name="saturation_gas" NumberOfComponents="1" format="ascii">
          0 0 0 0 0 0 0 0 0 0 0 0
          0.0383262 0.0501534 0.177101 0.172948 0.207611 0.195726 0.212193 0.187951 0.0443548 0.0606353 0 0
          0 0 0 0 0 0 0 0 0 0 0 0
          0 0 0 0 0.0592595 0.168651 0.189264 0.17701 0.069981 0 0 0
          0 0 0 0 0 0 0 0 0 0.0688519 0.165624 0.185028
          0.170876 0.0784539 0 0 0 0 0 0 0 0 0 0
          0 0 0.0790865 0.163879 0.181938 0.167295 0.0872175 0.00861334 0 0 0 0
          0 0 0 0 0 0 0.0309037 0.0894702 0.162641 0.17941 0.164745 0.0961403
          0.0365658 0 0 0 0 0 0 0 0 0 0 0.0479185
          0.0996944 0.161811 0.177383 0.163049 0.10496 0.0525137 0 0 0 0 0 0
          0 0 0 0.031351 0.0644328 0.111562 0.164315 0.179129 0.16498 0.115585 0.0685232 0.0345394
          0 0 0 0 0.0217374 0.039425 0.0586017 0.0795928 0.107698 0.146315 0.194487 0.241096
          0.257375 0.241276 0.19713 0.149851 0.11083 0.0819897 0.0605814 0.0415028 0.0257137 0.0410457 0.0527265 0.0723751
          0.0961849 0.12802 0.169916 0.219111 0.264026 0.280037 0.263772 0.221188 0.173308 0.13139 0.0989472 0.0746271
          0.0548038 0.0432164 0.0538306 0.0640271 0.083469 0.107901 0.139704 0.179479 0.223908 0.26309 0.27772 0.262741
          0.225583 0.182555 0.143027 0.110828 0.0858959 0.0661251 0.0556119 0.0660329 0.0769347 0.0969702 0.121864 0.152895
          0.189664 0.228804 0.262321 0.275632 0.262082 0.230335 0.192564 0.156207 0.124976 0.0996245 0.0791458 0.0677161
          0.0799331 0.0919484 0.112743 0.137633 0.167064 0.200097 0.233668 0.261678 0.273652 0.261678 0.23523 0.20296
          0.170451 0.140981 0.115678 0.0943709 0.0815925 0.096457 0.10968 0.130874 0.154976 0.181937 0.210613 0.238504
          0.261299 0.271835 0.261558 0.240199 0.21353 0.185458 0.158583 0.134155 0.112394 0.0981676 0.117318 0.131611
          0.152631 0.175187 0.199043 0.223147 0.24565 0.263792 0.27294 0.264346 0.247598 0.226272 0.202846 0.179184
          0.156373 0.134706 0.11915 0.159335 0.178418 0.203582 0.227993 0.251545 0.273566 0.292885 0.308021 0.316364
          0.309422 0.296075 0.278232 0.257145 0.233876 0.209055 0.182792 0.161809 0.317022 0.395006 0.456478 0.493244
          0.517982 0.535824 0.548605 0.557162 0.561423 0.558913 0.55217 0.541 0.524416 0.500316 0.463153 0.399741
          0.318258
        </DataArray>
        <DataArray type="Float32" Name="relativePerm_liquid" NumberOfComponents="1" format="ascii">
          1 1 1 1 1 1 1 1 1 1 1 1
          0.821705 0.771844 0.367544 0.377446 0.300655 0.325518 0.29146 0.342598 0.795998 0.729583 1 1
          1 1 1 1 1 1 1 1 1 1 1 1
          1 1 1 1 0.735029 0.387899 0.339667 0.36776 0.693389 1 1 1
          1 1 1 1 1 1 1 1 1 0.697689 0.395391 0.34919
          0.382459 0.661754 1 1 1 1 1 1 1 1 1 1
          1 1 0.659436 0.399759 0.356262 0.391241 0.630185 0.957624 1 1 1 1
          1 1 1 1 1 1 0.854206 0.622256 0.40288 0.362125 0.397588 0.599218
          0.829328 1 1 1 1 1 1 1 1 1 1 0.781087
          0.587206 0.404984 0.36688 0.40185 0.569745 0.762172 1 1 1 1 1 1
          1 1 1 0.852221 0.714709 0.548403 0.398665 0.362783 0.396998 0.535696 0.698944 0.838169
          1 1 1 1 0.895663 0.816974 0.737643 0.657585 0.560819 0.445775 0.328197 0.238225
          0.21166 0.237919 0.322503 0.436206 0.550738 0.648878 0.729796 0.808083 0.877499 0.810033 0.761304 0.684337
          0.599065 0.497811 0.3848 0.277979 0.201471 0.178455 0.201854 0.274024 0.376579 0.487902 0.589716 0.675904
          0.752874 0.800805 0.756815 0.716287 0.643546 0.560162 0.464082 0.361964 0.268911 0.202883 0.181657 0.203411
          0.265796 0.354841 0.454809 0.550746 0.634872 0.708155 0.749614 0.708511 0.667344 0.596396 0.516305 0.428093
          0.338778 0.259885 0.204048 0.18458 0.204411 0.25711 0.332385 0.419398 0.506893 0.58744 0.659219 0.702034
          0.656344 0.61362 0.544648 0.469932 0.391812 0.316201 0.251144 0.205026 0.187383 0.205026 0.248385 0.310209
          0.383494 0.460502 0.535406 0.605265 0.650315 0.59814 0.554424 0.489409 0.422613 0.356264 0.294606 0.242676
          0.205604 0.189984 0.205208 0.23976 0.288817 0.348214 0.413238 0.479879 0.545757 0.592344 0.530291 0.487255
          0.428792 0.372084 0.31843 0.270335 0.230557 0.201823 0.188399 0.200991 0.227332 0.264524 0.310445 0.362653
          0.418965 0.478294 0.524623 0.411305 0.364446 0.308918 0.261363 0.220904 0.187506 0.16146 0.14303 0.133572
          0.141408 0.157435 0.180946 0.212019 0.250776 0.297734 0.354296 0.40499 0.132846 0.0656802 0.0339985 0.0216178
          0.0154437 0.0118908 0.00975133 0.00849 0.00790965 0.00824779 0.00920994 0.0109859 0.0140817 0.0196923 0.0314318 0.062662
          0.131492
        </DataArray>
        <DataArray type="Float32" Name="relativePerm_gas" NumberOfComponents="1" format="ascii">
          0 0 0 0 0 0 0 0 0 0 0 0
          0.000214643 0.000477343 0.0192965 0.018023 0.0304194 0.0257063 0.0323715 0.0228888 0.000331415 0.000837835 0 0
          0 0 0 0 0 0 0 0 0 0 0 0
          0 0 0 0 0.000782788 0.016763 0.0233502 0.0192679 0.0012802 0 0 0
          0 0 0 0 0 0 0 0 0 0.00122012 0.0159102 0.0218826
          0.0174082 0.00179378 0 0 0 0 0 0 0 0 0 0
          0 0 0.00183675 0.0154313 0.0208498 0.0163775 0.00245035 2.48274e-06 0 0 0 0
          0 0 0 0 0 0 0.000113064 0.00264122 0.0150973 0.0200285 0.0156677 0.0032626
          0.000186615 0 0 0 0 0 0 0 0 0 0 0.000416931
          0.00362938 0.0148757 0.0193849 0.0152068 0.00422046 0.000547123 0 0 0 0 0 0
          0 0 0 0.00011801 0.00100284 0.00504565 0.0155499 0.0199383 0.0157324 0.00559627 0.00120299 0.00015748
          0 0 0 0 3.95771e-05 0.000233474 0.000757332 0.00187164 0.0045511 0.0111166 0.0252432 0.0464944
          0.0558849 0.0465923 0.0262371 0.0119133 0.00494946 0.00204265 0.000835629 0.000272007 6.53454e-05 0.000263195 0.000553726 0.00141392
          0.00326705 0.00754015 0.0171278 0.0354644 0.0600317 0.0707701 0.0598698 0.0364277 0.0181312 0.00813263 0.00355014 0.00154777
          0.000620949 0.00030677 0.000588822 0.000984273 0.00215312 0.00457627 0.00972089 0.0200507 0.0377132 0.0594367 0.0691489 0.0592162
          0.0385193 0.0210536 0.0104076 0.00494915 0.00234268 0.00108275 0.000648485 0.00107829 0.00169327 0.00334597 0.00653107 0.0126276
          0.0234919 0.0400987 0.0589509 0.0677078 0.0588007 0.0408633 0.0245355 0.0134352 0.00702946 0.00362192 0.00184082 0.0011616
          0.00189532 0.00286212 0.00520353 0.00930815 0.0163124 0.0273818 0.0425595 0.0585467 0.0663582 0.0585465 0.043369 0.0285153
          0.0172837 0.00998119 0.0056094 0.00308939 0.00201363 0.00329426 0.00480065 0.00804007 0.0131314 0.0208495 0.0316899 0.0450965
          0.058309 0.0651343 0.0584716 0.0460073 0.0329555 0.0220288 0.0140347 0.00864076 0.00515648 0.0034687 0.00584493 0.00817263
          0.0125647 0.0187026 0.0269715 0.0373506 0.0490139 0.0598827 0.065877 0.0602355 0.0501173 0.0388537 0.0284698 0.0199561
          0.0134765 0.00874426 0.00611544 0.0142278 0.019712 0.0287657 0.0396975 0.0523992 0.0662998 0.0801763 0.0921799 0.09923
          0.0933419 0.0826227 0.0695052 0.0557448 0.0426666 0.0310264 0.0211323 0.0148752 0.0997995 0.181316 0.265548 0.324248
          0.367128 0.399688 0.423824 0.440353 0.448692 0.443771 0.430674 0.409382 0.378715 0.336233 0.275751 0.187176
          0.100874
        </DataArray>
        <DataArray type="Float32" Name="porosity" NumberOfComponents="1" format="ascii">
          0.3 0.3 0.3 0.3 0.3 0.3 0.3 0.3 0.3 0.3 0.3 0.3
          0.3 0.3 0.3 0.3 0.3 0.3 0.3 0.3 0.3 0.3 0.3 0.3
          0.3 0.3 0.3 0.3 0.3 0.3 0.3 0.3 0.3 0.3 0.3 0.3
          0.3 0.3 0.3 0.3 0.3 0.3 0.3 0.3 0.3 0.3 0.3 0.3
          0.3 0.3 0.3 0.3 0.3 0.3 0.3 0.3 0.3 0.3 0.3 0.3
          0.3 0.3 0.3 0.3 0.3 0.3 0.3 0.3 0.3 0.3 0.3 0.3
          0.3 0.3 0.3 0.3 0.3 0.3 0.3 0.3 0.3 0.3 0.3 0.3
          0.3 0.3 0.3 0.3 0.3 0.3 0.3 0.3 0.3 0.3 0.3 0.3
          0.3 0.3 0.3 0.3 0.3 0.3 0.3 0.3 0.3 0.3 0.3 0.3
          0.3 0.3 0.3 0.3 0.3 0.3 0.3 0.3 0.3 0.3 0.3 0.3
          0.3 0.3 0.3 0.3 0.3 0.3 0.3 0.3 0.3 0.3 0.3 0.3
          0.3 0.3 0.3 0.3 0.3 0.3 0.3 0.3 0.3 0.3 0.3 0.3
          0.3 0.3 0.3 0.3 0.3 0.3 0.3 0.3 0.3 0.3 0.3 0.3
          0.3 0.3 0.3 0.3 0.3 0.3 0.3 0.3 0.3 0.3 0.3 0.3
          0.3 0.3 0.3 0.3 0.3 0.3 0.3 0.3 0.3 0.3 0.3 0.3
          0.3 0.3 0.3 0.3 0.3 0.3 0.3 0.3 0.3 0.3 0.3 0.3
          0.3 0.3 0.3 0.3 0.3 0.3 0.3 0.3 0.3 0.3 0.3 0.3
          0.3 0.3 0.3 0.3 0.3 0.3 0.3 0.3 0.3 0.3 0.3 0.3
          0.3 0.3 0.3 0.3 0.3 0.3 0.3 0.3 0.3 0.3 0.3 0.3
          0.3 0.3 0.3 0.3 0.3 0.3 0.3 0.3 0.3 0.3 0.3 0.3
          0.3 0.3 0.3 0.3 0.3 0.3 0.3 0.3 0.3 0.3 0.3 0.3
          0.3 0.3 0.3 0.3 0.3 0.3 0.3 0.3 0.3 0.3 0.3 0.3
          0.3 0.3 0.3 0.3 0.3 0.3 0.3 0.3 0.3 0.3 0.3 0.3
          0.3 0.3 0.3 0.3 0.3 0.3 0.3 0.3 0.3 0.3 0.3 0.3
          0.3
        </DataArray>
        <DataArray type="Float32" Name="temperature" NumberOfComponents="1" format="ascii">
          312.996 312.998 312.959 312.97 312.998 312.977 313 312.987 313.043 313.048 313.42 313.538
          315.48 316.397 321.885 327.933 393.775 365.449 420.526 371.515 333.547 328.455 315.948 315.601
          313.303 313.289 313.019 313.006 312.999 312.978 312.998 312.97 312.996 312.959 312.901 312.937
          312.957 312.977 313.069 313.709 317.073 328.524 353.008 353.584 326.526 315.673 313.337 313.002
          312.959 312.937 312.901 312.838 312.908 312.944 312.979 313.127 314.008 317.962 328.758 346.228
          345.517 326.286 316.142 313.481 313.019 312.947 312.908 312.838 312.775 312.897 312.947 313.012
          313.291 314.579 319.317 329.358 342.101 341.53 327.248 317.202 313.86 313.102 312.958 312.898
          312.775 312.74 312.918 313.01 313.211 313.863 315.757 321.032 329.871 339.08 338.691 328.485
          319.248 315.074 313.545 313.091 312.937 312.744 312.794 313.058 313.321 313.874 315.083 317.752
          323.005 330.174 336.706 336.53 329.666 322.046 317.24 314.841 313.713 313.207 312.846 313.154
          313.606 314.241 315.294 317.123 320.288 324.92 330.249 334.707 334.742 330.521 324.944 320.254
          317.212 315.351 314.205 313.478 314.043 314.639 315.649 317.114 319.262 322.282 326.028 329.85
          332.853 333.053 330.586 326.786 322.966 319.88 317.603 315.954 314.987 314.062 315.142 316.297
          317.857 319.992 322.741 325.881 328.904 331.11 331.434 329.839 327.012 323.82 320.94 318.622
          316.802 315.082 314.267 315.74 317.036 318.619 320.621 323.014 325.595 327.998 329.735 330.169
          329.206 327.186 324.643 322.1 319.844 317.855 315.506 314.512 316.344 317.746 319.274 321.06
          323.073 325.167 327.103 328.554 329.098 328.621 327.278 325.369 323.248 321.15 319.023 316.055
          314.777 316.865 318.305 319.711 321.238 322.886 324.576 326.163 327.431 328.076 327.982 327.205
          325.892 324.242 322.389 320.204 316.716 314.976 317.218 318.619 319.856 321.122 322.457 323.83
          325.156 326.294 327.016 327.207 326.882 326.093 324.919 323.381 321.241 317.353 315.062 317.338
          318.649 319.72 320.773 321.874 323.02 324.159 325.197 325.956 326.333 326.324 325.936 325.169
          323.951 321.939 317.833 314.902 317.187 318.459 319.443 320.38 321.351 322.362 323.381 324.344
          325.107 325.578 325.744 325.589 325.069 324.042 322.074 317.798 314.022 316.948 318.36 319.365
          320.281 321.204 322.151 323.102 324.017 324.764 325.253 325.476 325.407 324.974 323.968 321.754
          316.155
        </DataArray>
        <DataArray type="Float32" Name="moleFrac_liquid^H2O" NumberOfComponents="1" format="ascii">
          1 1 1 1 1 1 1 1 1 1 1 1
          0.998892 0.998902 0.998948 0.998989 0.999128 0.9991 0.999155 0.999108 0.999017 0.998992 1 1
          1 1 1 1 1 1 1 1 1 1 1 1
          1 1 1 1 0.99891 0.998994 0.999081 0.999082 0.998982 1 1 1
          1 1 1 1 1 1 1 1 0.999892 0.99892 0.998997 0.999066
          0.999064 0.998982 0.999803 1 1 1 1 1 1 1 1 1
          1 0.999215 0.998933 0.999002 0.999055 0.999053 0.99899 0.998915 1 1 1 1
          1 1 0.999999 0.999996 0.999969 0.99978 0.998903 0.998949 0.999006 0.999046 0.999045 0.998998
          0.998934 0.999741 0.999964 0.999995 0.999999 1 0.999992 0.999975 0.999918 0.999739 0.9992 0.998923
          0.998965 0.999009 0.999039 0.999038 0.999006 0.998958 0.999073 0.999692 0.999903 0.99997 0.999991 0.999906
          0.999823 0.999631 0.999269 0.998919 0.998946 0.998979 0.999011 0.999032 0.999032 0.999012 0.99898 0.998946
          0.999209 0.999592 0.999802 0.999894 0.998893 0.998898 0.998908 0.998921 0.998939 0.998963 0.998988 0.99901
          0.999025 0.999026 0.999014 0.998993 0.998968 0.998945 0.998926 0.998911 0.998903 0.998896 0.998906 0.998916
          0.99893 0.998947 0.998968 0.998989 0.999006 0.999018 0.999019 0.999012 0.998996 0.998976 0.998955 0.998937
          0.998922 0.998907 0.998901 0.998915 0.998926 0.998939 0.998955 0.998972 0.998989 0.999003 0.999013 0.999015
          0.99901 0.998999 0.998984 0.998967 0.99895 0.998934 0.998914 0.998907 0.998923 0.998935 0.998947 0.998961
          0.998975 0.998989 0.999 0.999009 0.999012 0.999009 0.999002 0.998991 0.998978 0.998963 0.998947 0.998922
          0.998912 0.998931 0.998942 0.998953 0.998964 0.998976 0.998987 0.998997 0.999004 0.999008 0.999008 0.999004
          0.998996 0.998987 0.998975 0.998959 0.998931 0.998917 0.998937 0.998947 0.998957 0.998966 0.998975 0.998984
          0.998992 0.998999 0.999004 0.999005 0.999004 0.999 0.998993 0.998984 0.99897 0.998939 0.99892 0.99894
          0.99895 0.998957 0.998965 0.998972 0.99898 0.998987 0.998994 0.998999 0.999002 0.999002 0.999 0.998997
          0.99899 0.998977 0.998946 0.998921 0.998941 0.99895 0.998957 0.998963 0.99897 0.998977 0.998983 0.99899
          0.998995 0.998998 0.999 0.999 0.998998 0.998992 0.99898 0.998948 0.998915 0.99894 0.99895 0.998957
          0.998963 0.998969 0.998976 0.998982 0.998988 0.998993 0.998997 0.998999 0.998999 0.998998 0.998993 0.998979
          0.998935
        </DataArray>
        <DataArray type="Float32" Name="moleFrac_liquid^Air" NumberOfComponents="1" format="ascii">
          0 0 0 0 0 0 0 0 0 0 2.46876e-18 3.40987e-18
          0.00110785 0.0010975 0.00105216 0.00101071 0.000871791 0.00089979 0.000845306 0.000892229 0.000982912 0.00100766 1.43461e-18 9.38022e-18
          0 0 0 0 0 0 0 0 0 0 0 0